s 1.000000000 _1_ AGT  --- 0 cbr 512 [0 0 0 0] ------- [1:0 0:0 32 0] [0] 0 0
r 1.000000000 _1_ RTR  --- 0 cbr 512 [0 0 0 0] ------- [1:0 0:0 32 0] [0] 0 0
s 1.000000000 _2_ AGT  --- 1 cbr 512 [0 0 0 0] ------- [2:0 0:0 32 0] [0] 0 0
r 1.000000000 _2_ RTR  --- 1 cbr 512 [0 0 0 0] ------- [2:0 0:0 32 0] [0] 0 0
s 1.000000000 _3_ AGT  --- 2 cbr 512 [0 0 0 0] ------- [3:0 0:0 32 0] [0] 0 0
r 1.000000000 _3_ RTR  --- 2 cbr 512 [0 0 0 0] ------- [3:0 0:0 32 0] [0] 0 0
s 1.000000000 _4_ AGT  --- 3 cbr 512 [0 0 0 0] ------- [4:0 0:0 32 0] [0] 0 0
r 1.000000000 _4_ RTR  --- 3 cbr 512 [0 0 0 0] ------- [4:0 0:0 32 0] [0] 0 0
s 1.000000000 _5_ AGT  --- 4 cbr 512 [0 0 0 0] ------- [5:0 0:0 32 0] [0] 0 0
r 1.000000000 _5_ RTR  --- 4 cbr 512 [0 0 0 0] ------- [5:0 0:0 32 0] [0] 0 0
s 1.000000000 _6_ AGT  --- 5 cbr 512 [0 0 0 0] ------- [6:0 0:0 32 0] [0] 0 0
r 1.000000000 _6_ RTR  --- 5 cbr 512 [0 0 0 0] ------- [6:0 0:0 32 0] [0] 0 0
s 1.000000000 _7_ AGT  --- 6 cbr 512 [0 0 0 0] ------- [7:0 0:0 32 0] [0] 0 0
r 1.000000000 _7_ RTR  --- 6 cbr 512 [0 0 0 0] ------- [7:0 0:0 32 0] [0] 0 0
s 1.000000000 _8_ AGT  --- 7 cbr 512 [0 0 0 0] ------- [8:0 0:0 32 0] [0] 0 0
r 1.000000000 _8_ RTR  --- 7 cbr 512 [0 0 0 0] ------- [8:0 0:0 32 0] [0] 0 0
s 1.000000000 _9_ AGT  --- 8 cbr 512 [0 0 0 0] ------- [9:0 0:0 32 0] [0] 0 0
r 1.000000000 _9_ RTR  --- 8 cbr 512 [0 0 0 0] ------- [9:0 0:0 32 0] [0] 0 0
s 1.000000000 _10_ AGT  --- 9 cbr 512 [0 0 0 0] ------- [10:0 0:0 32 0] [0] 0 0
r 1.000000000 _10_ RTR  --- 9 cbr 512 [0 0 0 0] ------- [10:0 0:0 32 0] [0] 0 0
s 1.000000000 _11_ AGT  --- 10 cbr 512 [0 0 0 0] ------- [11:0 0:0 32 0] [0] 0 0
r 1.000000000 _11_ RTR  --- 10 cbr 512 [0 0 0 0] ------- [11:0 0:0 32 0] [0] 0 0
s 1.000000000 _12_ AGT  --- 11 cbr 512 [0 0 0 0] ------- [12:0 0:0 32 0] [0] 0 0
r 1.000000000 _12_ RTR  --- 11 cbr 512 [0 0 0 0] ------- [12:0 0:0 32 0] [0] 0 0
s 1.000000000 _13_ AGT  --- 12 cbr 512 [0 0 0 0] ------- [13:0 0:0 32 0] [0] 0 0
r 1.000000000 _13_ RTR  --- 12 cbr 512 [0 0 0 0] ------- [13:0 0:0 32 0] [0] 0 0
s 1.000000000 _14_ AGT  --- 13 cbr 512 [0 0 0 0] ------- [14:0 0:0 32 0] [0] 0 0
r 1.000000000 _14_ RTR  --- 13 cbr 512 [0 0 0 0] ------- [14:0 0:0 32 0] [0] 0 0
s 1.000000000 _15_ AGT  --- 14 cbr 512 [0 0 0 0] ------- [15:0 0:0 32 0] [0] 0 0
r 1.000000000 _15_ RTR  --- 14 cbr 512 [0 0 0 0] ------- [15:0 0:0 32 0] [0] 0 0
s 1.000000000 _1_ RTR  --- 0 AODV 48 [0 0 0 0] ------- [1:255 -1:255 30 0] [0x2 1 1 [0 0] [1 4]] (REQUEST)
s 1.000000000 _2_ RTR  --- 0 AODV 48 [0 0 0 0] ------- [2:255 -1:255 30 0] [0x2 1 1 [0 0] [2 4]] (REQUEST)
s 1.000000000 _3_ RTR  --- 0 AODV 48 [0 0 0 0] ------- [3:255 -1:255 30 0] [0x2 1 1 [0 0] [3 4]] (REQUEST)
s 1.000000000 _4_ RTR  --- 0 AODV 48 [0 0 0 0] ------- [4:255 -1:255 30 0] [0x2 1 1 [0 0] [4 4]] (REQUEST)
s 1.000000000 _5_ RTR  --- 0 AODV 48 [0 0 0 0] ------- [5:255 -1:255 30 0] [0x2 1 1 [0 0] [5 4]] (REQUEST)
s 1.000000000 _6_ RTR  --- 0 AODV 48 [0 0 0 0] ------- [6:255 -1:255 30 0] [0x2 1 1 [0 0] [6 4]] (REQUEST)
s 1.000000000 _7_ RTR  --- 0 AODV 48 [0 0 0 0] ------- [7:255 -1:255 30 0] [0x2 1 1 [0 0] [7 4]] (REQUEST)
s 1.000000000 _8_ RTR  --- 0 AODV 48 [0 0 0 0] ------- [8:255 -1:255 30 0] [0x2 1 1 [0 0] [8 4]] (REQUEST)
s 1.000000000 _9_ RTR  --- 0 AODV 48 [0 0 0 0] ------- [9:255 -1:255 30 0] [0x2 1 1 [0 0] [9 4]] (REQUEST)
s 1.000000000 _10_ RTR  --- 0 AODV 48 [0 0 0 0] ------- [10:255 -1:255 30 0] [0x2 1 1 [0 0] [10 4]] (REQUEST)
s 1.000000000 _11_ RTR  --- 0 AODV 48 [0 0 0 0] ------- [11:255 -1:255 30 0] [0x2 1 1 [0 0] [11 4]] (REQUEST)
s 1.000000000 _12_ RTR  --- 0 AODV 48 [0 0 0 0] ------- [12:255 -1:255 30 0] [0x2 1 1 [0 0] [12 4]] (REQUEST)
s 1.000000000 _13_ RTR  --- 0 AODV 48 [0 0 0 0] ------- [13:255 -1:255 30 0] [0x2 1 1 [0 0] [13 4]] (REQUEST)
s 1.000000000 _14_ RTR  --- 0 AODV 48 [0 0 0 0] ------- [14:255 -1:255 30 0] [0x2 1 1 [0 0] [14 4]] (REQUEST)
s 1.000000000 _15_ RTR  --- 0 AODV 48 [0 0 0 0] ------- [15:255 -1:255 30 0] [0x2 1 1 [0 0] [15 4]] (REQUEST)
r 1.000948241 _0_ RTR  --- 0 AODV 48 [0 ffffffff 6 800] ------- [6:255 -1:255 30 0] [0x2 1 1 [0 0] [6 4]] (REQUEST)
s 1.000948241 _0_ RTR  --- 0 AODV 44 [0 0 0 0] ------- [0:255 6:255 30 6] [0x4 1 [0 4] 10.000000] (REPLY)
r 1.000948260 _13_ RTR  --- 0 AODV 48 [0 ffffffff 6 800] ------- [6:255 -1:255 30 0] [0x2 1 1 [0 0] [6 4]] (REQUEST)
r 1.000948398 _3_ RTR  --- 0 AODV 48 [0 ffffffff 6 800] ------- [6:255 -1:255 30 0] [0x2 1 1 [0 0] [6 4]] (REQUEST)
r 1.000948421 _1_ RTR  --- 0 AODV 48 [0 ffffffff 6 800] ------- [6:255 -1:255 30 0] [0x2 1 1 [0 0] [6 4]] (REQUEST)
r 1.000948486 _8_ RTR  --- 0 AODV 48 [0 ffffffff 6 800] ------- [6:255 -1:255 30 0] [0x2 1 1 [0 0] [6 4]] (REQUEST)
r 1.000948538 _7_ RTR  --- 0 AODV 48 [0 ffffffff 6 800] ------- [6:255 -1:255 30 0] [0x2 1 1 [0 0] [6 4]] (REQUEST)
r 1.000948603 _4_ RTR  --- 0 AODV 48 [0 ffffffff 6 800] ------- [6:255 -1:255 30 0] [0x2 1 1 [0 0] [6 4]] (REQUEST)
r 1.000948667 _9_ RTR  --- 0 AODV 48 [0 ffffffff 6 800] ------- [6:255 -1:255 30 0] [0x2 1 1 [0 0] [6 4]] (REQUEST)
r 1.000948704 _12_ RTR  --- 0 AODV 48 [0 ffffffff 6 800] ------- [6:255 -1:255 30 0] [0x2 1 1 [0 0] [6 4]] (REQUEST)
r 1.000948831 _14_ RTR  --- 0 AODV 48 [0 ffffffff 6 800] ------- [6:255 -1:255 30 0] [0x2 1 1 [0 0] [6 4]] (REQUEST)
r 1.001886444 _3_ RTR  --- 0 AODV 48 [0 ffffffff d 800] ------- [13:255 -1:255 30 0] [0x2 1 1 [0 0] [13 4]] (REQUEST)
r 1.001886477 _1_ RTR  --- 0 AODV 48 [0 ffffffff d 800] ------- [13:255 -1:255 30 0] [0x2 1 1 [0 0] [13 4]] (REQUEST)
r 1.001886520 _6_ RTR  --- 0 AODV 48 [0 ffffffff d 800] ------- [13:255 -1:255 30 0] [0x2 1 1 [0 0] [13 4]] (REQUEST)
r 1.001886623 _7_ RTR  --- 0 AODV 48 [0 ffffffff d 800] ------- [13:255 -1:255 30 0] [0x2 1 1 [0 0] [13 4]] (REQUEST)
r 1.001886654 _0_ RTR  --- 0 AODV 48 [0 ffffffff d 800] ------- [13:255 -1:255 30 0] [0x2 1 1 [0 0] [13 4]] (REQUEST)
s 1.001886654 _0_ RTR  --- 0 AODV 44 [0 0 0 0] ------- [0:255 13:255 30 13] [0x4 1 [0 6] 10.000000] (REPLY)
r 1.001886715 _4_ RTR  --- 0 AODV 48 [0 ffffffff d 800] ------- [13:255 -1:255 30 0] [0x2 1 1 [0 0] [13 4]] (REQUEST)
r 1.001886895 _8_ RTR  --- 0 AODV 48 [0 ffffffff d 800] ------- [13:255 -1:255 30 0] [0x2 1 1 [0 0] [13 4]] (REQUEST)
r 1.001886903 _15_ RTR  --- 0 AODV 48 [0 ffffffff d 800] ------- [13:255 -1:255 30 0] [0x2 1 1 [0 0] [13 4]] (REQUEST)
r 1.001886939 _11_ RTR  --- 0 AODV 48 [0 ffffffff d 800] ------- [13:255 -1:255 30 0] [0x2 1 1 [0 0] [13 4]] (REQUEST)
s 1.001889875 _8_ RTR  --- 0 AODV 48 [0 ffffffff 6 800] ------- [8:255 -1:255 29 0] [0x2 2 1 [0 0] [6 4]] (REQUEST)
s 1.002696473 _1_ RTR  --- 0 AODV 48 [0 ffffffff 6 800] ------- [1:255 -1:255 29 0] [0x2 2 1 [0 0] [6 4]] (REQUEST)
r 1.002904726 _4_ RTR  --- 0 AODV 48 [0 ffffffff 7 800] ------- [7:255 -1:255 30 0] [0x2 1 1 [0 0] [7 4]] (REQUEST)
r 1.002904772 _1_ RTR  --- 0 AODV 48 [0 ffffffff 7 800] ------- [7:255 -1:255 30 0] [0x2 1 1 [0 0] [7 4]] (REQUEST)
r 1.002904806 _3_ RTR  --- 0 AODV 48 [0 ffffffff 7 800] ------- [7:255 -1:255 30 0] [0x2 1 1 [0 0] [7 4]] (REQUEST)
r 1.002904963 _15_ RTR  --- 0 AODV 48 [0 ffffffff 7 800] ------- [7:255 -1:255 30 0] [0x2 1 1 [0 0] [7 4]] (REQUEST)
r 1.002904987 _13_ RTR  --- 0 AODV 48 [0 ffffffff 7 800] ------- [7:255 -1:255 30 0] [0x2 1 1 [0 0] [7 4]] (REQUEST)
r 1.002905002 _11_ RTR  --- 0 AODV 48 [0 ffffffff 7 800] ------- [7:255 -1:255 30 0] [0x2 1 1 [0 0] [7 4]] (REQUEST)
r 1.002905121 _0_ RTR  --- 0 AODV 48 [0 ffffffff 7 800] ------- [7:255 -1:255 30 0] [0x2 1 1 [0 0] [7 4]] (REQUEST)
s 1.002905121 _0_ RTR  --- 0 AODV 44 [0 0 0 0] ------- [0:255 7:255 30 7] [0x4 1 [0 8] 10.000000] (REPLY)
r 1.002905162 _6_ RTR  --- 0 AODV 48 [0 ffffffff 7 800] ------- [7:255 -1:255 30 0] [0x2 1 1 [0 0] [7 4]] (REQUEST)
r 1.002905261 _8_ RTR  --- 0 AODV 48 [0 ffffffff 7 800] ------- [7:255 -1:255 30 0] [0x2 1 1 [0 0] [7 4]] (REQUEST)
r 1.002905302 _5_ RTR  --- 0 AODV 48 [0 ffffffff 7 800] ------- [7:255 -1:255 30 0] [0x2 1 1 [0 0] [7 4]] (REQUEST)
s 1.003013385 _5_ RTR  --- 0 AODV 48 [0 ffffffff 7 800] ------- [5:255 -1:255 29 0] [0x2 2 1 [0 0] [7 4]] (REQUEST)
s 1.003489287 _8_ RTR  --- 0 AODV 48 [0 ffffffff 7 800] ------- [8:255 -1:255 29 0] [0x2 2 1 [0 0] [7 4]] (REQUEST)
s 1.003529546 _9_ RTR  --- 0 AODV 48 [0 ffffffff 6 800] ------- [9:255 -1:255 29 0] [0x2 2 1 [0 0] [6 4]] (REQUEST)
r 1.003843002 _11_ RTR  --- 0 AODV 48 [0 ffffffff f 800] ------- [15:255 -1:255 30 0] [0x2 1 1 [0 0] [15 4]] (REQUEST)
r 1.003843297 _4_ RTR  --- 0 AODV 48 [0 ffffffff f 800] ------- [15:255 -1:255 30 0] [0x2 1 1 [0 0] [15 4]] (REQUEST)
r 1.003843303 _7_ RTR  --- 0 AODV 48 [0 ffffffff f 800] ------- [15:255 -1:255 30 0] [0x2 1 1 [0 0] [15 4]] (REQUEST)
r 1.003843512 _0_ RTR  --- 0 AODV 48 [0 ffffffff 8 800] ------- [8:255 -1:255 30 0] [0x2 1 1 [0 0] [8 4]] (REQUEST)
s 1.003843512 _0_ RTR  --- 0 AODV 44 [0 0 0 0] ------- [0:255 8:255 30 8] [0x4 1 [0 10] 10.000000] (REPLY)
r 1.003843711 _5_ RTR  --- 0 AODV 48 [0 ffffffff 8 800] ------- [8:255 -1:255 30 0] [0x2 1 1 [0 0] [8 4]] (REQUEST)
r 1.003843752 _14_ RTR  --- 0 AODV 48 [0 ffffffff 8 800] ------- [8:255 -1:255 30 0] [0x2 1 1 [0 0] [8 4]] (REQUEST)
r 1.003844027 _10_ RTR  --- 0 AODV 48 [0 ffffffff 8 800] ------- [8:255 -1:255 30 0] [0x2 1 1 [0 0] [8 4]] (REQUEST)
s 1.003996711 _4_ RTR  --- 0 AODV 48 [0 ffffffff 7 800] ------- [4:255 -1:255 29 0] [0x2 2 1 [0 0] [7 4]] (REQUEST)
s 1.004025475 _6_ RTR  --- 0 AODV 48 [0 ffffffff 7 800] ------- [6:255 -1:255 29 0] [0x2 2 1 [0 0] [7 4]] (REQUEST)
s 1.004058114 _6_ RTR  --- 0 AODV 48 [0 ffffffff d 800] ------- [6:255 -1:255 29 0] [0x2 2 1 [0 0] [13 4]] (REQUEST)
s 1.004298880 _7_ RTR  --- 0 AODV 48 [0 ffffffff d 800] ------- [7:255 -1:255 29 0] [0x2 2 1 [0 0] [13 4]] (REQUEST)
s 1.004436013 _4_ RTR  --- 0 AODV 48 [0 ffffffff 6 800] ------- [4:255 -1:255 29 0] [0x2 2 1 [0 0] [6 4]] (REQUEST)
s 1.004778458 _3_ RTR  --- 0 AODV 48 [0 ffffffff 7 800] ------- [3:255 -1:255 29 0] [0x2 2 1 [0 0] [7 4]] (REQUEST)
s 1.005035561 _12_ RTR  --- 0 AODV 48 [0 ffffffff 6 800] ------- [12:255 -1:255 29 0] [0x2 2 1 [0 0] [6 4]] (REQUEST)
s 1.005074037 _11_ RTR  --- 0 AODV 48 [0 ffffffff f 800] ------- [11:255 -1:255 29 0] [0x2 2 1 [0 0] [15 4]] (REQUEST)
r 1.005146429 _5_ RTR  --- 0 AODV 48 [0 ffffffff 2 800] ------- [2:255 -1:255 30 0] [0x2 1 1 [0 0] [2 4]] (REQUEST)
r 1.005146798 _8_ RTR  --- 0 AODV 48 [0 ffffffff 2 800] ------- [2:255 -1:255 30 0] [0x2 1 1 [0 0] [2 4]] (REQUEST)
s 1.005184965 _3_ RTR  --- 0 AODV 48 [0 ffffffff 6 800] ------- [3:255 -1:255 29 0] [0x2 2 1 [0 0] [6 4]] (REQUEST)
s 1.005422373 _8_ RTR  --- 0 AODV 48 [0 ffffffff 2 800] ------- [8:255 -1:255 29 0] [0x2 2 1 [0 0] [2 4]] (REQUEST)
s 1.006135319 _14_ RTR  --- 0 AODV 48 [0 ffffffff 6 800] ------- [14:255 -1:255 29 0] [0x2 2 1 [0 0] [6 4]] (REQUEST)
r 1.006284741 _2_ RTR  --- 0 AODV 48 [0 ffffffff 5 800] ------- [5:255 -1:255 30 0] [0x2 1 1 [0 0] [5 4]] (REQUEST)
r 1.006284879 _8_ RTR  --- 0 AODV 48 [0 ffffffff 5 800] ------- [5:255 -1:255 30 0] [0x2 1 1 [0 0] [5 4]] (REQUEST)
r 1.006285028 _4_ RTR  --- 0 AODV 48 [0 ffffffff 5 800] ------- [5:255 -1:255 30 0] [0x2 1 1 [0 0] [5 4]] (REQUEST)
r 1.006285048 _0_ RTR  --- 0 AODV 48 [0 ffffffff 5 800] ------- [5:255 -1:255 30 0] [0x2 1 1 [0 0] [5 4]] (REQUEST)
s 1.006285048 _0_ RTR  --- 0 AODV 44 [0 0 0 0] ------- [0:255 5:255 30 5] [0x4 1 [0 12] 10.000000] (REPLY)
r 1.006285107 _7_ RTR  --- 0 AODV 48 [0 ffffffff 5 800] ------- [5:255 -1:255 30 0] [0x2 1 1 [0 0] [5 4]] (REQUEST)
r 1.006285194 _1_ RTR  --- 0 AODV 48 [0 ffffffff 5 800] ------- [5:255 -1:255 30 0] [0x2 1 1 [0 0] [5 4]] (REQUEST)
r 1.006285214 _14_ RTR  --- 0 AODV 48 [0 ffffffff 5 800] ------- [5:255 -1:255 30 0] [0x2 1 1 [0 0] [5 4]] (REQUEST)
r 1.006285217 _3_ RTR  --- 0 AODV 48 [0 ffffffff 5 800] ------- [5:255 -1:255 30 0] [0x2 1 1 [0 0] [5 4]] (REQUEST)
s 1.006413240 _7_ RTR  --- 0 AODV 48 [0 ffffffff f 800] ------- [7:255 -1:255 29 0] [0x2 2 1 [0 0] [15 4]] (REQUEST)
s 1.006946848 _1_ RTR  --- 0 AODV 48 [0 ffffffff 7 800] ------- [1:255 -1:255 29 0] [0x2 2 1 [0 0] [7 4]] (REQUEST)
r 1.007243131 _7_ RTR  --- 0 AODV 48 [0 ffffffff 4 800] ------- [4:255 -1:255 30 0] [0x2 1 1 [0 0] [4 4]] (REQUEST)
r 1.007243275 _1_ RTR  --- 0 AODV 48 [0 ffffffff 4 800] ------- [4:255 -1:255 30 0] [0x2 1 1 [0 0] [4 4]] (REQUEST)
r 1.007243308 _3_ RTR  --- 0 AODV 48 [0 ffffffff 4 800] ------- [4:255 -1:255 30 0] [0x2 1 1 [0 0] [4 4]] (REQUEST)
r 1.007243362 _15_ RTR  --- 0 AODV 48 [0 ffffffff 4 800] ------- [4:255 -1:255 30 0] [0x2 1 1 [0 0] [4 4]] (REQUEST)
r 1.007243400 _11_ RTR  --- 0 AODV 48 [0 ffffffff 4 800] ------- [4:255 -1:255 30 0] [0x2 1 1 [0 0] [4 4]] (REQUEST)
r 1.007243483 _13_ RTR  --- 0 AODV 48 [0 ffffffff 4 800] ------- [4:255 -1:255 30 0] [0x2 1 1 [0 0] [4 4]] (REQUEST)
r 1.007243550 _0_ RTR  --- 0 AODV 48 [0 ffffffff 4 800] ------- [4:255 -1:255 30 0] [0x2 1 1 [0 0] [4 4]] (REQUEST)
s 1.007243550 _0_ RTR  --- 0 AODV 44 [0 0 0 0] ------- [0:255 4:255 30 4] [0x4 1 [0 14] 10.000000] (REPLY)
r 1.007243627 _5_ RTR  --- 0 AODV 48 [0 ffffffff 4 800] ------- [4:255 -1:255 30 0] [0x2 1 1 [0 0] [4 4]] (REQUEST)
r 1.007243631 _6_ RTR  --- 0 AODV 48 [0 ffffffff 4 800] ------- [4:255 -1:255 30 0] [0x2 1 1 [0 0] [4 4]] (REQUEST)
r 1.007243650 _8_ RTR  --- 0 AODV 48 [0 ffffffff 4 800] ------- [4:255 -1:255 30 0] [0x2 1 1 [0 0] [4 4]] (REQUEST)
s 1.007744642 _3_ RTR  --- 0 AODV 48 [0 ffffffff 4 800] ------- [3:255 -1:255 29 0] [0x2 2 1 [0 0] [4 4]] (REQUEST)
s 1.008072495 _3_ RTR  --- 0 AODV 48 [0 ffffffff 5 800] ------- [3:255 -1:255 29 0] [0x2 2 1 [0 0] [5 4]] (REQUEST)
s 1.008125632 _6_ RTR  --- 0 AODV 48 [0 ffffffff 4 800] ------- [6:255 -1:255 29 0] [0x2 2 1 [0 0] [4 4]] (REQUEST)
s 1.008146884 _2_ RTR  --- 0 AODV 48 [0 ffffffff 5 800] ------- [2:255 -1:255 29 0] [0x2 2 1 [0 0] [5 4]] (REQUEST)
s 1.008156700 _7_ RTR  --- 0 AODV 48 [0 ffffffff 4 800] ------- [7:255 -1:255 29 0] [0x2 2 1 [0 0] [4 4]] (REQUEST)
r 1.008201439 _15_ RTR  --- 0 AODV 48 [0 ffffffff b 800] ------- [11:255 -1:255 30 0] [0x2 1 1 [0 0] [11 4]] (REQUEST)
r 1.008201772 _4_ RTR  --- 0 AODV 48 [0 ffffffff b 800] ------- [11:255 -1:255 30 0] [0x2 1 1 [0 0] [11 4]] (REQUEST)
r 1.008201779 _7_ RTR  --- 0 AODV 48 [0 ffffffff b 800] ------- [11:255 -1:255 30 0] [0x2 1 1 [0 0] [11 4]] (REQUEST)
r 1.008201879 _1_ RTR  --- 0 AODV 48 [0 ffffffff b 800] ------- [11:255 -1:255 30 0] [0x2 1 1 [0 0] [11 4]] (REQUEST)
r 1.008201905 _3_ RTR  --- 0 AODV 48 [0 ffffffff b 800] ------- [11:255 -1:255 30 0] [0x2 1 1 [0 0] [11 4]] (REQUEST)
r 1.008202079 _13_ RTR  --- 0 AODV 48 [0 ffffffff b 800] ------- [11:255 -1:255 30 0] [0x2 1 1 [0 0] [11 4]] (REQUEST)
s 1.008352534 _1_ RTR  --- 0 AODV 48 [0 ffffffff 5 800] ------- [1:255 -1:255 29 0] [0x2 2 1 [0 0] [5 4]] (REQUEST)
s 1.008660384 _8_ RTR  --- 0 AODV 48 [0 ffffffff d 800] ------- [8:255 -1:255 29 0] [0x2 2 1 [0 0] [13 4]] (REQUEST)
s 1.009018824 _7_ RTR  --- 0 AODV 48 [0 ffffffff 6 800] ------- [7:255 -1:255 29 0] [0x2 2 1 [0 0] [6 4]] (REQUEST)
r 1.009159875 _7_ RTR  --- 0 AODV 48 [0 ffffffff 4 800] ------- [4:255 -1:255 29 0] [0x2 2 1 [0 0] [6 4]] (REQUEST)
r 1.009160019 _1_ RTR  --- 0 AODV 48 [0 ffffffff 4 800] ------- [4:255 -1:255 29 0] [0x2 2 1 [0 0] [6 4]] (REQUEST)
r 1.009160052 _3_ RTR  --- 0 AODV 48 [0 ffffffff 4 800] ------- [4:255 -1:255 29 0] [0x2 2 1 [0 0] [6 4]] (REQUEST)
r 1.009160106 _15_ RTR  --- 0 AODV 48 [0 ffffffff 4 800] ------- [4:255 -1:255 29 0] [0x2 2 1 [0 0] [6 4]] (REQUEST)
r 1.009160144 _11_ RTR  --- 0 AODV 48 [0 ffffffff 4 800] ------- [4:255 -1:255 29 0] [0x2 2 1 [0 0] [6 4]] (REQUEST)
r 1.009160227 _13_ RTR  --- 0 AODV 48 [0 ffffffff 4 800] ------- [4:255 -1:255 29 0] [0x2 2 1 [0 0] [6 4]] (REQUEST)
r 1.009160294 _0_ RTR  --- 0 AODV 48 [0 ffffffff 4 800] ------- [4:255 -1:255 29 0] [0x2 2 1 [0 0] [6 4]] (REQUEST)
r 1.009160371 _5_ RTR  --- 0 AODV 48 [0 ffffffff 4 800] ------- [4:255 -1:255 29 0] [0x2 2 1 [0 0] [6 4]] (REQUEST)
r 1.009160374 _6_ RTR  --- 0 AODV 48 [0 ffffffff 4 800] ------- [4:255 -1:255 29 0] [0x2 2 1 [0 0] [6 4]] (REQUEST)
r 1.009160393 _8_ RTR  --- 0 AODV 48 [0 ffffffff 4 800] ------- [4:255 -1:255 29 0] [0x2 2 1 [0 0] [6 4]] (REQUEST)
s 1.009291971 _14_ RTR  --- 0 AODV 48 [0 ffffffff 8 800] ------- [14:255 -1:255 29 0] [0x2 2 1 [0 0] [8 4]] (REQUEST)
s 1.009403302 _5_ RTR  --- 0 AODV 48 [0 ffffffff 2 800] ------- [5:255 -1:255 29 0] [0x2 2 1 [0 0] [2 4]] (REQUEST)
s 1.009509222 _15_ RTR  --- 0 AODV 48 [0 ffffffff d 800] ------- [15:255 -1:255 29 0] [0x2 2 1 [0 0] [13 4]] (REQUEST)
s 1.009545537 _13_ RTR  --- 0 AODV 48 [0 ffffffff 6 800] ------- [13:255 -1:255 29 0] [0x2 2 1 [0 0] [6 4]] (REQUEST)
r 1.010098053 _3_ RTR  --- 0 AODV 48 [0 ffffffff 1 800] ------- [1:255 -1:255 30 0] [0x2 1 1 [0 0] [1 4]] (REQUEST)
r 1.010098168 _7_ RTR  --- 0 AODV 48 [0 ffffffff 1 800] ------- [1:255 -1:255 30 0] [0x2 1 1 [0 0] [1 4]] (REQUEST)
r 1.010098236 _13_ RTR  --- 0 AODV 48 [0 ffffffff 1 800] ------- [1:255 -1:255 30 0] [0x2 1 1 [0 0] [1 4]] (REQUEST)
r 1.010098266 _4_ RTR  --- 0 AODV 48 [0 ffffffff 1 800] ------- [1:255 -1:255 30 0] [0x2 1 1 [0 0] [1 4]] (REQUEST)
r 1.010098440 _6_ RTR  --- 0 AODV 48 [0 ffffffff 1 800] ------- [1:255 -1:255 30 0] [0x2 1 1 [0 0] [1 4]] (REQUEST)
r 1.010098460 _0_ RTR  --- 0 AODV 48 [0 ffffffff 1 800] ------- [1:255 -1:255 30 0] [0x2 1 1 [0 0] [1 4]] (REQUEST)
s 1.010098460 _0_ RTR  --- 0 AODV 44 [0 0 0 0] ------- [0:255 1:255 30 1] [0x4 1 [0 16] 10.000000] (REPLY)
r 1.010098461 _15_ RTR  --- 0 AODV 48 [0 ffffffff 1 800] ------- [1:255 -1:255 30 0] [0x2 1 1 [0 0] [1 4]] (REQUEST)
r 1.010098499 _11_ RTR  --- 0 AODV 48 [0 ffffffff 1 800] ------- [1:255 -1:255 30 0] [0x2 1 1 [0 0] [1 4]] (REQUEST)
r 1.010098650 _8_ RTR  --- 0 AODV 48 [0 ffffffff 1 800] ------- [1:255 -1:255 30 0] [0x2 1 1 [0 0] [1 4]] (REQUEST)
r 1.010098784 _5_ RTR  --- 0 AODV 48 [0 ffffffff 1 800] ------- [1:255 -1:255 30 0] [0x2 1 1 [0 0] [1 4]] (REQUEST)
s 1.010099913 _7_ RTR  --- 0 AODV 48 [0 ffffffff 1 800] ------- [7:255 -1:255 29 0] [0x2 2 1 [0 0] [1 4]] (REQUEST)
s 1.010284729 _1_ RTR  --- 0 AODV 48 [0 ffffffff d 800] ------- [1:255 -1:255 29 0] [0x2 2 1 [0 0] [13 4]] (REQUEST)
s 1.010397781 _4_ RTR  --- 0 AODV 48 [0 ffffffff d 800] ------- [4:255 -1:255 29 0] [0x2 2 1 [0 0] [13 4]] (REQUEST)
s 1.010426422 _11_ RTR  --- 0 AODV 48 [0 ffffffff 1 800] ------- [11:255 -1:255 29 0] [0x2 2 1 [0 0] [1 4]] (REQUEST)
s 1.010507117 _3_ RTR  --- 0 AODV 48 [0 ffffffff d 800] ------- [3:255 -1:255 29 0] [0x2 2 1 [0 0] [13 4]] (REQUEST)
s 1.010529536 _4_ RTR  --- 0 AODV 48 [0 ffffffff f 800] ------- [4:255 -1:255 29 0] [0x2 2 1 [0 0] [15 4]] (REQUEST)
s 1.010660255 _5_ RTR  --- 0 AODV 48 [0 ffffffff 4 800] ------- [5:255 -1:255 28 0] [0x2 3 1 [0 0] [6 4]] (REQUEST)
s 1.010830443 _5_ RTR  --- 0 AODV 48 [0 ffffffff 8 800] ------- [5:255 -1:255 29 0] [0x2 2 1 [0 0] [8 4]] (REQUEST)
s 1.010932535 _13_ RTR  --- 0 AODV 48 [0 ffffffff 1 800] ------- [13:255 -1:255 29 0] [0x2 2 1 [0 0] [1 4]] (REQUEST)
s 1.010936394 _11_ RTR  --- 0 AODV 48 [0 ffffffff d 800] ------- [11:255 -1:255 29 0] [0x2 2 1 [0 0] [13 4]] (REQUEST)
r 1.011016681 _0_ RTR  --- 0 AODV 48 [0 ffffffff 6 800] ------- [6:255 -1:255 29 0] [0x2 2 1 [0 0] [7 4]] (REQUEST)
r 1.011016700 _13_ RTR  --- 0 AODV 48 [0 ffffffff 6 800] ------- [6:255 -1:255 29 0] [0x2 2 1 [0 0] [7 4]] (REQUEST)
r 1.011016838 _3_ RTR  --- 0 AODV 48 [0 ffffffff 6 800] ------- [6:255 -1:255 29 0] [0x2 2 1 [0 0] [7 4]] (REQUEST)
r 1.011016861 _1_ RTR  --- 0 AODV 48 [0 ffffffff 6 800] ------- [6:255 -1:255 29 0] [0x2 2 1 [0 0] [7 4]] (REQUEST)
r 1.011016926 _8_ RTR  --- 0 AODV 48 [0 ffffffff 6 800] ------- [6:255 -1:255 29 0] [0x2 2 1 [0 0] [7 4]] (REQUEST)
r 1.011016978 _7_ RTR  --- 0 AODV 48 [0 ffffffff 6 800] ------- [6:255 -1:255 29 0] [0x2 2 1 [0 0] [7 4]] (REQUEST)
r 1.011017043 _4_ RTR  --- 0 AODV 48 [0 ffffffff 6 800] ------- [6:255 -1:255 29 0] [0x2 2 1 [0 0] [7 4]] (REQUEST)
r 1.011017107 _9_ RTR  --- 0 AODV 48 [0 ffffffff 6 800] ------- [6:255 -1:255 29 0] [0x2 2 1 [0 0] [7 4]] (REQUEST)
r 1.011017144 _12_ RTR  --- 0 AODV 48 [0 ffffffff 6 800] ------- [6:255 -1:255 29 0] [0x2 2 1 [0 0] [7 4]] (REQUEST)
r 1.011017271 _14_ RTR  --- 0 AODV 48 [0 ffffffff 6 800] ------- [6:255 -1:255 29 0] [0x2 2 1 [0 0] [7 4]] (REQUEST)
s 1.011455827 _5_ RTR  --- 0 AODV 48 [0 ffffffff 4 800] ------- [5:255 -1:255 29 0] [0x2 2 1 [0 0] [4 4]] (REQUEST)
s 1.011762491 _3_ RTR  --- 0 AODV 48 [0 ffffffff b 800] ------- [3:255 -1:255 29 0] [0x2 2 1 [0 0] [11 4]] (REQUEST)
s 1.011779398 _15_ RTR  --- 0 AODV 48 [0 ffffffff 7 800] ------- [15:255 -1:255 29 0] [0x2 2 1 [0 0] [7 4]] (REQUEST)
s 1.011818481 _11_ RTR  --- 0 AODV 48 [0 ffffffff 7 800] ------- [11:255 -1:255 29 0] [0x2 2 1 [0 0] [7 4]] (REQUEST)
r 1.011955178 _0_ RTR  --- 0 AODV 48 [0 ffffffff 8 800] ------- [8:255 -1:255 29 0] [0x2 2 1 [0 0] [7 4]] (REQUEST)
r 1.011955376 _5_ RTR  --- 0 AODV 48 [0 ffffffff 8 800] ------- [8:255 -1:255 29 0] [0x2 2 1 [0 0] [7 4]] (REQUEST)
r 1.011955413 _6_ RTR  --- 0 AODV 48 [0 ffffffff 8 800] ------- [8:255 -1:255 29 0] [0x2 2 1 [0 0] [7 4]] (REQUEST)
r 1.011955417 _14_ RTR  --- 0 AODV 48 [0 ffffffff 8 800] ------- [8:255 -1:255 29 0] [0x2 2 1 [0 0] [7 4]] (REQUEST)
r 1.011955548 _4_ RTR  --- 0 AODV 48 [0 ffffffff 8 800] ------- [8:255 -1:255 29 0] [0x2 2 1 [0 0] [7 4]] (REQUEST)
r 1.011955557 _1_ RTR  --- 0 AODV 48 [0 ffffffff 8 800] ------- [8:255 -1:255 29 0] [0x2 2 1 [0 0] [7 4]] (REQUEST)
r 1.011955561 _3_ RTR  --- 0 AODV 48 [0 ffffffff 8 800] ------- [8:255 -1:255 29 0] [0x2 2 1 [0 0] [7 4]] (REQUEST)
r 1.011955561 _13_ RTR  --- 0 AODV 48 [0 ffffffff 8 800] ------- [8:255 -1:255 29 0] [0x2 2 1 [0 0] [7 4]] (REQUEST)
r 1.011955564 _7_ RTR  --- 0 AODV 48 [0 ffffffff 8 800] ------- [8:255 -1:255 29 0] [0x2 2 1 [0 0] [7 4]] (REQUEST)
r 1.011955608 _2_ RTR  --- 0 AODV 48 [0 ffffffff 8 800] ------- [8:255 -1:255 29 0] [0x2 2 1 [0 0] [7 4]] (REQUEST)
r 1.011955693 _10_ RTR  --- 0 AODV 48 [0 ffffffff 8 800] ------- [8:255 -1:255 29 0] [0x2 2 1 [0 0] [7 4]] (REQUEST)
s 1.012160492 _1_ RTR  --- 0 AODV 48 [0 ffffffff 4 800] ------- [1:255 -1:255 29 0] [0x2 2 1 [0 0] [4 4]] (REQUEST)
s 1.012275107 _10_ RTR  --- 0 AODV 48 [0 ffffffff 8 800] ------- [10:255 -1:255 28 0] [0x2 3 1 [0 0] [7 4]] (REQUEST)
s 1.012367636 _13_ RTR  --- 0 AODV 48 [0 ffffffff 7 800] ------- [13:255 -1:255 29 0] [0x2 2 1 [0 0] [7 4]] (REQUEST)
s 1.012572385 _11_ RTR  --- 0 AODV 48 [0 ffffffff 4 800] ------- [11:255 -1:255 29 0] [0x2 2 1 [0 0] [4 4]] (REQUEST)
s 1.012610584 _10_ RTR  --- 0 AODV 48 [0 ffffffff 8 800] ------- [10:255 -1:255 29 0] [0x2 2 1 [0 0] [8 4]] (REQUEST)
s 1.013148674 _5_ RTR  --- 0 AODV 48 [0 ffffffff 1 800] ------- [5:255 -1:255 29 0] [0x2 2 1 [0 0] [1 4]] (REQUEST)
s 1.013234587 _14_ RTR  --- 0 AODV 48 [0 ffffffff 5 800] ------- [14:255 -1:255 29 0] [0x2 2 1 [0 0] [5 4]] (REQUEST)
s 1.013420410 _4_ RTR  --- 0 AODV 48 [0 ffffffff 1 800] ------- [4:255 -1:255 29 0] [0x2 2 1 [0 0] [1 4]] (REQUEST)
r 1.013631646 _1_ RTR  --- 0 AODV 48 [0 ffffffff 3 800] ------- [3:255 -1:255 30 0] [0x2 1 1 [0 0] [3 4]] (REQUEST)
s 1.013667798 _2_ RTR  --- 0 AODV 48 [0 ffffffff 8 800] ------- [2:255 -1:255 28 0] [0x2 3 1 [0 0] [7 4]] (REQUEST)
s 1.013751123 _8_ RTR  --- 0 AODV 48 [0 ffffffff 1 800] ------- [8:255 -1:255 29 0] [0x2 2 1 [0 0] [1 4]] (REQUEST)
s 1.013786165 _13_ RTR  --- 0 AODV 48 [0 ffffffff b 800] ------- [13:255 -1:255 29 0] [0x2 2 1 [0 0] [11 4]] (REQUEST)
s 1.013834091 _3_ RTR  --- 0 AODV 48 [0 ffffffff 1 800] ------- [3:255 -1:255 29 0] [0x2 2 1 [0 0] [1 4]] (REQUEST)
s 1.014012065 _7_ RTR  --- 0 AODV 48 [0 ffffffff 5 800] ------- [7:255 -1:255 29 0] [0x2 2 1 [0 0] [5 4]] (REQUEST)
s 1.014062897 _4_ RTR  --- 0 AODV 48 [0 ffffffff b 800] ------- [4:255 -1:255 29 0] [0x2 2 1 [0 0] [11 4]] (REQUEST)
s 1.014134750 _8_ RTR  --- 0 AODV 48 [0 ffffffff 5 800] ------- [8:255 -1:255 29 0] [0x2 2 1 [0 0] [5 4]] (REQUEST)
s 1.014234455 _9_ RTR  --- 0 AODV 48 [0 ffffffff 6 800] ------- [9:255 -1:255 28 0] [0x2 3 1 [0 0] [7 4]] (REQUEST)
s 1.014594395 _13_ RTR  --- 0 AODV 48 [0 ffffffff 4 800] ------- [13:255 -1:255 29 0] [0x2 2 1 [0 0] [4 4]] (REQUEST)
r 1.014913898 _4_ RTR  --- 0 AODV 48 [0 ffffffff 7 800] ------- [7:255 -1:255 29 0] [0x2 2 1 [0 0] [1 4]] (REQUEST)
r 1.014913944 _1_ RTR  --- 0 AODV 48 [0 ffffffff 7 800] ------- [7:255 -1:255 29 0] [0x2 2 1 [0 0] [1 4]] (REQUEST)
r 1.014913978 _3_ RTR  --- 0 AODV 48 [0 ffffffff 7 800] ------- [7:255 -1:255 29 0] [0x2 2 1 [0 0] [1 4]] (REQUEST)
r 1.014914135 _15_ RTR  --- 0 AODV 48 [0 ffffffff 7 800] ------- [7:255 -1:255 29 0] [0x2 2 1 [0 0] [1 4]] (REQUEST)
r 1.014914159 _13_ RTR  --- 0 AODV 48 [0 ffffffff 7 800] ------- [7:255 -1:255 29 0] [0x2 2 1 [0 0] [1 4]] (REQUEST)
r 1.014914174 _11_ RTR  --- 0 AODV 48 [0 ffffffff 7 800] ------- [7:255 -1:255 29 0] [0x2 2 1 [0 0] [1 4]] (REQUEST)
r 1.014914293 _0_ RTR  --- 0 AODV 48 [0 ffffffff 7 800] ------- [7:255 -1:255 29 0] [0x2 2 1 [0 0] [1 4]] (REQUEST)
r 1.014914333 _6_ RTR  --- 0 AODV 48 [0 ffffffff 7 800] ------- [7:255 -1:255 29 0] [0x2 2 1 [0 0] [1 4]] (REQUEST)
r 1.014914433 _8_ RTR  --- 0 AODV 48 [0 ffffffff 7 800] ------- [7:255 -1:255 29 0] [0x2 2 1 [0 0] [1 4]] (REQUEST)
r 1.014914473 _5_ RTR  --- 0 AODV 48 [0 ffffffff 7 800] ------- [7:255 -1:255 29 0] [0x2 2 1 [0 0] [1 4]] (REQUEST)
s 1.015387651 _8_ RTR  --- 0 AODV 48 [0 ffffffff 4 800] ------- [8:255 -1:255 29 0] [0x2 2 1 [0 0] [4 4]] (REQUEST)
s 1.015560184 _7_ RTR  --- 0 AODV 48 [0 ffffffff b 800] ------- [7:255 -1:255 29 0] [0x2 2 1 [0 0] [11 4]] (REQUEST)
s 1.015753190 _4_ RTR  --- 0 AODV 48 [0 ffffffff 5 800] ------- [4:255 -1:255 29 0] [0x2 2 1 [0 0] [5 4]] (REQUEST)
s 1.015795403 _11_ RTR  --- 0 AODV 48 [0 ffffffff 4 800] ------- [11:255 -1:255 28 0] [0x2 3 1 [0 0] [6 4]] (REQUEST)
r 1.015872785 _2_ RTR  --- 0 AODV 48 [0 ffffffff 5 800] ------- [5:255 -1:255 29 0] [0x2 2 1 [0 0] [7 4]] (REQUEST)
r 1.015872923 _8_ RTR  --- 0 AODV 48 [0 ffffffff 5 800] ------- [5:255 -1:255 29 0] [0x2 2 1 [0 0] [7 4]] (REQUEST)
r 1.015873072 _4_ RTR  --- 0 AODV 48 [0 ffffffff 5 800] ------- [5:255 -1:255 29 0] [0x2 2 1 [0 0] [7 4]] (REQUEST)
r 1.015873092 _0_ RTR  --- 0 AODV 48 [0 ffffffff 5 800] ------- [5:255 -1:255 29 0] [0x2 2 1 [0 0] [7 4]] (REQUEST)
r 1.015873152 _7_ RTR  --- 0 AODV 48 [0 ffffffff 5 800] ------- [5:255 -1:255 29 0] [0x2 2 1 [0 0] [7 4]] (REQUEST)
r 1.015873238 _1_ RTR  --- 0 AODV 48 [0 ffffffff 5 800] ------- [5:255 -1:255 29 0] [0x2 2 1 [0 0] [7 4]] (REQUEST)
r 1.015873259 _14_ RTR  --- 0 AODV 48 [0 ffffffff 5 800] ------- [5:255 -1:255 29 0] [0x2 2 1 [0 0] [7 4]] (REQUEST)
r 1.015873261 _3_ RTR  --- 0 AODV 48 [0 ffffffff 5 800] ------- [5:255 -1:255 29 0] [0x2 2 1 [0 0] [7 4]] (REQUEST)
s 1.015894417 _15_ RTR  --- 0 AODV 48 [0 ffffffff 4 800] ------- [15:255 -1:255 29 0] [0x2 2 1 [0 0] [4 4]] (REQUEST)
s 1.016221998 _1_ RTR  --- 0 AODV 48 [0 ffffffff b 800] ------- [1:255 -1:255 29 0] [0x2 2 1 [0 0] [11 4]] (REQUEST)
r 1.016770785 _2_ RTR  --- 0 AODV 48 [0 ffffffff 5 800] ------- [5:255 -1:255 29 0] [0x2 2 1 [0 0] [1 4]] (REQUEST)
r 1.016770923 _8_ RTR  --- 0 AODV 48 [0 ffffffff 5 800] ------- [5:255 -1:255 29 0] [0x2 2 1 [0 0] [1 4]] (REQUEST)
r 1.016771072 _4_ RTR  --- 0 AODV 48 [0 ffffffff 5 800] ------- [5:255 -1:255 29 0] [0x2 2 1 [0 0] [1 4]] (REQUEST)
r 1.016771092 _0_ RTR  --- 0 AODV 48 [0 ffffffff 5 800] ------- [5:255 -1:255 29 0] [0x2 2 1 [0 0] [1 4]] (REQUEST)
r 1.016771152 _7_ RTR  --- 0 AODV 48 [0 ffffffff 5 800] ------- [5:255 -1:255 29 0] [0x2 2 1 [0 0] [1 4]] (REQUEST)
r 1.016771238 _1_ RTR  --- 0 AODV 48 [0 ffffffff 5 800] ------- [5:255 -1:255 29 0] [0x2 2 1 [0 0] [1 4]] (REQUEST)
r 1.016771259 _14_ RTR  --- 0 AODV 48 [0 ffffffff 5 800] ------- [5:255 -1:255 29 0] [0x2 2 1 [0 0] [1 4]] (REQUEST)
r 1.016771261 _3_ RTR  --- 0 AODV 48 [0 ffffffff 5 800] ------- [5:255 -1:255 29 0] [0x2 2 1 [0 0] [1 4]] (REQUEST)
s 1.016947902 _15_ RTR  --- 0 AODV 48 [0 ffffffff b 800] ------- [15:255 -1:255 29 0] [0x2 2 1 [0 0] [11 4]] (REQUEST)
s 1.016997856 _15_ RTR  --- 0 AODV 48 [0 ffffffff 4 800] ------- [15:255 -1:255 28 0] [0x2 3 1 [0 0] [6 4]] (REQUEST)
s 1.017055338 _6_ RTR  --- 0 AODV 48 [0 ffffffff 1 800] ------- [6:255 -1:255 29 0] [0x2 2 1 [0 0] [1 4]] (REQUEST)
r 1.017689097 _5_ RTR  --- 0 AODV 48 [0 ffffffff 2 800] ------- [2:255 -1:255 29 0] [0x2 2 1 [0 0] [5 4]] (REQUEST)
r 1.017689467 _8_ RTR  --- 0 AODV 48 [0 ffffffff 2 800] ------- [2:255 -1:255 29 0] [0x2 2 1 [0 0] [5 4]] (REQUEST)
r 1.018627409 _2_ RTR  --- 0 AODV 48 [0 ffffffff 5 800] ------- [5:255 -1:255 29 0] [0x2 2 1 [0 0] [4 4]] (REQUEST)
r 1.018627547 _8_ RTR  --- 0 AODV 48 [0 ffffffff 5 800] ------- [5:255 -1:255 29 0] [0x2 2 1 [0 0] [4 4]] (REQUEST)
r 1.018627696 _4_ RTR  --- 0 AODV 48 [0 ffffffff 5 800] ------- [5:255 -1:255 29 0] [0x2 2 1 [0 0] [4 4]] (REQUEST)
r 1.018627716 _0_ RTR  --- 0 AODV 48 [0 ffffffff 5 800] ------- [5:255 -1:255 29 0] [0x2 2 1 [0 0] [4 4]] (REQUEST)
r 1.018627776 _7_ RTR  --- 0 AODV 48 [0 ffffffff 5 800] ------- [5:255 -1:255 29 0] [0x2 2 1 [0 0] [4 4]] (REQUEST)
r 1.018627862 _1_ RTR  --- 0 AODV 48 [0 ffffffff 5 800] ------- [5:255 -1:255 29 0] [0x2 2 1 [0 0] [4 4]] (REQUEST)
r 1.018627883 _14_ RTR  --- 0 AODV 48 [0 ffffffff 5 800] ------- [5:255 -1:255 29 0] [0x2 2 1 [0 0] [4 4]] (REQUEST)
r 1.018627885 _3_ RTR  --- 0 AODV 48 [0 ffffffff 5 800] ------- [5:255 -1:255 29 0] [0x2 2 1 [0 0] [4 4]] (REQUEST)
s 1.018839115 _1_ RTR  --- 0 AODV 48 [0 ffffffff 3 800] ------- [1:255 -1:255 29 0] [0x2 2 1 [0 0] [3 4]] (REQUEST)
s 1.019217853 _15_ RTR  --- 0 AODV 48 [0 ffffffff 1 800] ------- [15:255 -1:255 29 0] [0x2 2 1 [0 0] [1 4]] (REQUEST)
r 1.019545409 _2_ RTR  --- 0 AODV 48 [0 ffffffff 5 800] ------- [5:255 -1:255 29 0] [0x2 2 1 [0 0] [8 4]] (REQUEST)
s 1.019817228 _14_ RTR  --- 0 AODV 48 [0 ffffffff 6 800] ------- [14:255 -1:255 28 0] [0x2 3 1 [0 0] [7 4]] (REQUEST)