s 0.000000000 _0_ AGT  --- 0 cbr 210 [0 0 0 0] ------- [0:0 1:0 32 0] [0] 0 0
r 0.000000000 _0_ RTR  --- 0 cbr 210 [0 0 0 0] ------- [0:0 1:0 32 0] [0] 0 0
s 0.000000000 _2_ AGT  --- 1 cbr 210 [0 0 0 0] ------- [2:0 3:0 32 0] [0] 0 0
r 0.000000000 _2_ RTR  --- 1 cbr 210 [0 0 0 0] ------- [2:0 3:0 32 0] [0] 0 0
s 0.000000000 _4_ AGT  --- 2 cbr 210 [0 0 0 0] ------- [4:0 5:0 32 0] [0] 0 0
r 0.000000000 _4_ RTR  --- 2 cbr 210 [0 0 0 0] ------- [4:0 5:0 32 0] [0] 0 0
s 0.000000000 _6_ AGT  --- 3 cbr 210 [0 0 0 0] ------- [6:0 7:0 32 0] [0] 0 0
r 0.000000000 _6_ RTR  --- 3 cbr 210 [0 0 0 0] ------- [6:0 7:0 32 0] [0] 0 0
s 0.000000000 _0_ RTR  --- 0 AODV 48 [0 0 0 0] ------- [0:255 -1:255 30 0] [0x2 1 1 [1 0] [0 4]] (REQUEST)
s 0.000000000 _2_ RTR  --- 0 AODV 48 [0 0 0 0] ------- [2:255 -1:255 30 0] [0x2 1 1 [3 0] [2 4]] (REQUEST)
s 0.000000000 _4_ RTR  --- 0 AODV 48 [0 0 0 0] ------- [4:255 -1:255 30 0] [0x2 1 1 [5 0] [4 4]] (REQUEST)
s 0.000000000 _6_ RTR  --- 0 AODV 48 [0 0 0 0] ------- [6:255 -1:255 30 0] [0x2 1 1 [7 0] [6 4]] (REQUEST)
r 0.000988667 _0_ RTR  --- 0 AODV 48 [0 ffffffff 2 800] ------- [2:255 -1:255 30 0] [0x2 1 1 [3 0] [2 4]] (REQUEST)
r 0.000988667 _4_ RTR  --- 0 AODV 48 [0 ffffffff 2 800] ------- [2:255 -1:255 30 0] [0x2 1 1 [3 0] [2 4]] (REQUEST)
r 0.000988667 _3_ RTR  --- 0 AODV 48 [0 ffffffff 2 800] ------- [2:255 -1:255 30 0] [0x2 1 1 [3 0] [2 4]] (REQUEST)
s 0.000988667 _3_ RTR  --- 0 AODV 44 [0 0 0 0] ------- [3:255 2:255 30 2] [0x4 1 [3 4] 10.000000] (REPLY)
s 0.003750000 _0_ AGT  --- 4 cbr 210 [0 0 0 0] ------- [0:0 1:0 32 0] [1] 0 0
r 0.003750000 _0_ RTR  --- 4 cbr 210 [0 0 0 0] ------- [0:0 1:0 32 0] [1] 0 0
s 0.003750000 _2_ AGT  --- 5 cbr 210 [0 0 0 0] ------- [2:0 3:0 32 0] [1] 0 0
r 0.003750000 _2_ RTR  --- 5 cbr 210 [0 0 0 0] ------- [2:0 3:0 32 0] [1] 0 0
s 0.003750000 _4_ AGT  --- 6 cbr 210 [0 0 0 0] ------- [4:0 5:0 32 0] [1] 0 0
r 0.003750000 _4_ RTR  --- 6 cbr 210 [0 0 0 0] ------- [4:0 5:0 32 0] [1] 0 0
s 0.003750000 _6_ AGT  --- 7 cbr 210 [0 0 0 0] ------- [6:0 7:0 32 0] [1] 0 0
r 0.003750000 _6_ RTR  --- 7 cbr 210 [0 0 0 0] ------- [6:0 7:0 32 0] [1] 0 0
s 0.004118284 _4_ RTR  --- 0 AODV 48 [0 ffffffff 2 800] ------- [4:255 -1:255 29 0] [0x2 2 1 [3 0] [2 4]] (REQUEST)
r 0.005471333 _2_ RTR  --- 0 AODV 44 [13a 2 3 800] ------- [3:255 2:255 30 2] [0x4 1 [3 4] 10.000000] (REPLY)
s 0.005471333 _2_ RTR  --- 1 cbr 230 [0 0 0 0] ------- [2:0 3:0 30 3] [0] 0 0
s 0.007500000 _0_ AGT  --- 8 cbr 210 [0 0 0 0] ------- [0:0 1:0 32 0] [2] 0 0
r 0.007500000 _0_ RTR  --- 8 cbr 210 [0 0 0 0] ------- [0:0 1:0 32 0] [2] 0 0
s 0.007500000 _2_ AGT  --- 9 cbr 210 [0 0 0 0] ------- [2:0 3:0 32 0] [2] 0 0
r 0.007500000 _2_ RTR  --- 9 cbr 210 [0 0 0 0] ------- [2:0 3:0 32 0] [2] 0 0
s 0.007500000 _4_ AGT  --- 10 cbr 210 [0 0 0 0] ------- [4:0 5:0 32 0] [2] 0 0
r 0.007500000 _4_ RTR  --- 10 cbr 210 [0 0 0 0] ------- [4:0 5:0 32 0] [2] 0 0
s 0.007500000 _6_ AGT  --- 11 cbr 210 [0 0 0 0] ------- [6:0 7:0 32 0] [2] 0 0
r 0.007500000 _6_ RTR  --- 11 cbr 210 [0 0 0 0] ------- [6:0 7:0 32 0] [2] 0 0
s 0.007500000 _2_ RTR  --- 9 cbr 230 [0 0 0 0] ------- [2:0 3:0 30 3] [2] 0 0
s 0.008980221 _0_ RTR  --- 0 AODV 48 [0 ffffffff 2 800] ------- [0:255 -1:255 29 0] [0x2 2 1 [3 0] [2 4]] (REQUEST)
r 0.009037333 _3_ AGT  --- 1 cbr 230 [13a 3 2 800] ------- [2:0 3:0 30 3] [0] 1 0
s 0.011250000 _0_ AGT  --- 12 cbr 210 [0 0 0 0] ------- [0:0 1:0 32 0] [3] 0 0
r 0.011250000 _0_ RTR  --- 12 cbr 210 [0 0 0 0] ------- [0:0 1:0 32 0] [3] 0 0
s 0.011250000 _2_ AGT  --- 13 cbr 210 [0 0 0 0] ------- [2:0 3:0 32 0] [3] 0 0
r 0.011250000 _2_ RTR  --- 13 cbr 210 [0 0 0 0] ------- [2:0 3:0 32 0] [3] 0 0
s 0.011250000 _4_ AGT  --- 14 cbr 210 [0 0 0 0] ------- [4:0 5:0 32 0] [3] 0 0
r 0.011250000 _4_ RTR  --- 14 cbr 210 [0 0 0 0] ------- [4:0 5:0 32 0] [3] 0 0
s 0.011250000 _6_ AGT  --- 15 cbr 210 [0 0 0 0] ------- [6:0 7:0 32 0] [3] 0 0
r 0.011250000 _6_ RTR  --- 15 cbr 210 [0 0 0 0] ------- [6:0 7:0 32 0] [3] 0 0
s 0.011250000 _2_ RTR  --- 13 cbr 230 [0 0 0 0] ------- [2:0 3:0 30 3] [3] 0 0
r 0.012624000 _3_ AGT  --- 9 cbr 230 [13a 3 2 800] ------- [2:0 3:0 30 3] [2] 1 0
s 0.015000000 _0_ AGT  --- 16 cbr 210 [0 0 0 0] ------- [0:0 1:0 32 0] [4] 0 0
r 0.015000000 _0_ RTR  --- 16 cbr 210 [0 0 0 0] ------- [0:0 1:0 32 0] [4] 0 0
s 0.015000000 _2_ AGT  --- 17 cbr 210 [0 0 0 0] ------- [2:0 3:0 32 0] [4] 0 0
r 0.015000000 _2_ RTR  --- 17 cbr 210 [0 0 0 0] ------- [2:0 3:0 32 0] [4] 0 0
s 0.015000000 _4_ AGT  --- 18 cbr 210 [0 0 0 0] ------- [4:0 5:0 32 0] [4] 0 0
r 0.015000000 _4_ RTR  --- 18 cbr 210 [0 0 0 0] ------- [4:0 5:0 32 0] [4] 0 0
s 0.015000000 _6_ AGT  --- 19 cbr 210 [0 0 0 0] ------- [6:0 7:0 32 0] [4] 0 0
r 0.015000000 _6_ RTR  --- 19 cbr 210 [0 0 0 0] ------- [6:0 7:0 32 0] [4] 0 0
s 0.015000000 _2_ RTR  --- 17 cbr 230 [0 0 0 0] ------- [2:0 3:0 30 3] [4] 0 0
s 0.015471333 _2_ RTR  --- 5 cbr 230 [0 0 0 0] ------- [2:0 3:0 30 3] [1] 0 0
r 0.016010667 _3_ AGT  --- 13 cbr 230 [13a 3 2 800] ------- [2:0 3:0 30 3] [3] 1 0
r 0.017628276 _2_ RTR  --- 0 AODV 48 [0 ffffffff 0 800] ------- [0:255 -1:255 30 0] [0x2 1 1 [1 0] [0 4]] (REQUEST)
r 0.017628276 _1_ RTR  --- 0 AODV 48 [0 ffffffff 0 800] ------- [0:255 -1:255 30 0] [0x2 1 1 [1 0] [0 4]] (REQUEST)
s 0.017628276 _1_ RTR  --- 0 AODV 44 [0 0 0 0] ------- [1:255 0:255 30 0] [0x4 1 [1 4] 10.000000] (REPLY)
r 0.017848824 _7_ RTR  --- 0 AODV 48 [0 ffffffff 6 800] ------- [6:255 -1:255 30 0] [0x2 1 1 [7 0] [6 4]] (REQUEST)
s 0.017848824 _7_ RTR  --- 0 AODV 44 [0 0 0 0] ------- [7:255 6:255 30 6] [0x4 1 [7 4] 10.000000] (REPLY)
r 0.018686276 _2_ RTR  --- 0 AODV 48 [0 ffffffff 0 800] ------- [0:255 -1:255 29 0] [0x2 2 1 [3 0] [2 4]] (REQUEST)
r 0.018686276 _1_ RTR  --- 0 AODV 48 [0 ffffffff 0 800] ------- [0:255 -1:255 29 0] [0x2 2 1 [3 0] [2 4]] (REQUEST)
s 0.018750000 _0_ AGT  --- 20 cbr 210 [0 0 0 0] ------- [0:0 1:0 32 0] [5] 0 0
r 0.018750000 _0_ RTR  --- 20 cbr 210 [0 0 0 0] ------- [0:0 1:0 32 0] [5] 0 0
s 0.018750000 _2_ AGT  --- 21 cbr 210 [0 0 0 0] ------- [2:0 3:0 32 0] [5] 0 0
r 0.018750000 _2_ RTR  --- 21 cbr 210 [0 0 0 0] ------- [2:0 3:0 32 0] [5] 0 0
s 0.018750000 _4_ AGT  --- 22 cbr 210 [0 0 0 0] ------- [4:0 5:0 32 0] [5] 0 0
r 0.018750000 _4_ RTR  --- 22 cbr 210 [0 0 0 0] ------- [4:0 5:0 32 0] [5] 0 0
s 0.018750000 _6_ AGT  --- 23 cbr 210 [0 0 0 0] ------- [6:0 7:0 32 0] [5] 0 0
r 0.018750000 _6_ RTR  --- 23 cbr 210 [0 0 0 0] ------- [6:0 7:0 32 0] [5] 0 0
s 0.018750000 _2_ RTR  --- 21 cbr 230 [0 0 0 0] ------- [2:0 3:0 30 3] [5] 0 0
s 0.018766359 _2_ RTR  --- 0 AODV 48 [0 ffffffff 0 800] ------- [2:255 -1:255 29 0] [0x2 2 1 [1 0] [0 4]] (REQUEST)
s 0.022500000 _0_ AGT  --- 24 cbr 210 [0 0 0 0] ------- [0:0 1:0 32 0] [6] 0 0
r 0.022500000 _0_ RTR  --- 24 cbr 210 [0 0 0 0] ------- [0:0 1:0 32 0] [6] 0 0
s 0.022500000 _2_ AGT  --- 25 cbr 210 [0 0 0 0] ------- [2:0 3:0 32 0] [6] 0 0
r 0.022500000 _2_ RTR  --- 25 cbr 210 [0 0 0 0] ------- [2:0 3:0 32 0] [6] 0 0
s 0.022500000 _4_ AGT  --- 26 cbr 210 [0 0 0 0] ------- [4:0 5:0 32 0] [6] 0 0
r 0.022500000 _4_ RTR  --- 26 cbr 210 [0 0 0 0] ------- [4:0 5:0 32 0] [6] 0 0
s 0.022500000 _6_ AGT  --- 27 cbr 210 [0 0 0 0] ------- [6:0 7:0 32 0] [6] 0 0
r 0.022500000 _6_ RTR  --- 27 cbr 210 [0 0 0 0] ------- [6:0 7:0 32 0] [6] 0 0
s 0.022500000 _2_ RTR  --- 25 cbr 230 [0 0 0 0] ------- [2:0 3:0 30 3] [6] 0 0
r 0.022836491 _6_ RTR  --- 0 AODV 44 [13a 6 7 800] ------- [7:255 6:255 30 6] [0x4 1 [7 4] 10.000000] (REPLY)
s 0.022836491 _6_ RTR  --- 3 cbr 230 [0 0 0 0] ------- [6:0 7:0 30 7] [0] 0 0
r 0.023218943 _0_ RTR  --- 0 AODV 44 [13a 0 1 800] ------- [1:255 0:255 30 0] [0x4 1 [1 4] 10.000000] (REPLY)
s 0.023218943 _0_ RTR  --- 0 cbr 230 [0 0 0 0] ------- [0:0 1:0 30 1] [0] 0 0
s 0.026250000 _0_ AGT  --- 28 cbr 210 [0 0 0 0] ------- [0:0 1:0 32 0] [7] 0 0
r 0.026250000 _0_ RTR  --- 28 cbr 210 [0 0 0 0] ------- [0:0 1:0 32 0] [7] 0 0
s 0.026250000 _2_ AGT  --- 29 cbr 210 [0 0 0 0] ------- [2:0 3:0 32 0] [7] 0 0
r 0.026250000 _2_ RTR  --- 29 cbr 210 [0 0 0 0] ------- [2:0 3:0 32 0] [7] 0 0
s 0.026250000 _4_ AGT  --- 30 cbr 210 [0 0 0 0] ------- [4:0 5:0 32 0] [7] 0 0
r 0.026250000 _4_ RTR  --- 30 cbr 210 [0 0 0 0] ------- [4:0 5:0 32 0] [7] 0 0
s 0.026250000 _6_ AGT  --- 31 cbr 210 [0 0 0 0] ------- [6:0 7:0 32 0] [7] 0 0
r 0.026250000 _6_ RTR  --- 31 cbr 210 [0 0 0 0] ------- [6:0 7:0 32 0] [7] 0 0
s 0.026250000 _0_ RTR  --- 28 cbr 230 [0 0 0 0] ------- [0:0 1:0 30 1] [7] 0 0
s 0.026250000 _2_ RTR  --- 29 cbr 230 [0 0 0 0] ------- [2:0 3:0 30 3] [7] 0 0
s 0.026250000 _6_ RTR  --- 31 cbr 230 [0 0 0 0] ------- [6:0 7:0 30 7] [7] 0 0
r 0.026402491 _7_ AGT  --- 3 cbr 230 [13a 7 6 800] ------- [6:0 7:0 30 7] [0] 1 0
s 0.026756562 _1_ RTR  --- 0 AODV 48 [0 ffffffff 0 800] ------- [1:255 -1:255 28 0] [0x2 3 1 [3 0] [2 4]] (REQUEST)
r 0.026984943 _1_ AGT  --- 0 cbr 230 [13a 1 0 800] ------- [0:0 1:0 30 1] [0] 1 0
s 0.030000000 _0_ AGT  --- 32 cbr 210 [0 0 0 0] ------- [0:0 1:0 32 0] [8] 0 0
r 0.030000000 _0_ RTR  --- 32 cbr 210 [0 0 0 0] ------- [0:0 1:0 32 0] [8] 0 0
s 0.030000000 _2_ AGT  --- 33 cbr 210 [0 0 0 0] ------- [2:0 3:0 32 0] [8] 0 0
r 0.030000000 _2_ RTR  --- 33 cbr 210 [0 0 0 0] ------- [2:0 3:0 32 0] [8] 0 0
s 0.030000000 _4_ AGT  --- 34 cbr 210 [0 0 0 0] ------- [4:0 5:0 32 0] [8] 0 0
r 0.030000000 _4_ RTR  --- 34 cbr 210 [0 0 0 0] ------- [4:0 5:0 32 0] [8] 0 0
s 0.030000000 _6_ AGT  --- 35 cbr 210 [0 0 0 0] ------- [6:0 7:0 32 0] [8] 0 0
r 0.030000000 _6_ RTR  --- 35 cbr 210 [0 0 0 0] ------- [6:0 7:0 32 0] [8] 0 0
s 0.030000000 _0_ RTR  --- 32 cbr 230 [0 0 0 0] ------- [0:0 1:0 30 1] [8] 0 0
s 0.030000000 _2_ RTR  --- 33 cbr 230 [0 0 0 0] ------- [2:0 3:0 30 3] [8] 0 0
s 0.030000000 _6_ RTR  --- 35 cbr 230 [0 0 0 0] ------- [6:0 7:0 30 7] [8] 0 0
r 0.030109157 _7_ AGT  --- 31 cbr 230 [13a 7 6 800] ------- [6:0 7:0 30 7] [7] 1 0
r 0.030371609 _1_ AGT  --- 28 cbr 230 [13a 1 0 800] ------- [0:0 1:0 30 1] [7] 1 0
r 0.031664276 _0_ RTR  --- 0 AODV 48 [0 ffffffff 1 800] ------- [1:255 -1:255 28 0] [0x2 3 1 [3 0] [2 4]] (REQUEST)
s 0.032836491 _6_ RTR  --- 7 cbr 230 [0 0 0 0] ------- [6:0 7:0 30 7] [1] 0 0
s 0.033218943 _0_ RTR  --- 4 cbr 230 [0 0 0 0] ------- [0:0 1:0 30 1] [1] 0 0
s 0.033750000 _0_ AGT  --- 36 cbr 210 [0 0 0 0] ------- [0:0 1:0 32 0] [9] 0 0
r 0.033750000 _0_ RTR  --- 36 cbr 210 [0 0 0 0] ------- [0:0 1:0 32 0] [9] 0 0
s 0.033750000 _2_ AGT  --- 37 cbr 210 [0 0 0 0] ------- [2:0 3:0 32 0] [9] 0 0
r 0.033750000 _2_ RTR  --- 37 cbr 210 [0 0 0 0] ------- [2:0 3:0 32 0] [9] 0 0
s 0.033750000 _4_ AGT  --- 38 cbr 210 [0 0 0 0] ------- [4:0 5:0 32 0] [9] 0 0
r 0.033750000 _4_ RTR  --- 38 cbr 210 [0 0 0 0] ------- [4:0 5:0 32 0] [9] 0 0
s 0.033750000 _6_ AGT  --- 39 cbr 210 [0 0 0 0] ------- [6:0 7:0 32 0] [9] 0 0
r 0.033750000 _6_ RTR  --- 39 cbr 210 [0 0 0 0] ------- [6:0 7:0 32 0] [9] 0 0
s 0.033750000 _0_ RTR  --- 36 cbr 230 [0 0 0 0] ------- [0:0 1:0 30 1] [9] 0 0
s 0.033750000 _2_ RTR  --- 37 cbr 230 [0 0 0 0] ------- [2:0 3:0 30 3] [9] 0 0
s 0.033750000 _6_ RTR  --- 39 cbr 230 [0 0 0 0] ------- [6:0 7:0 30 7] [9] 0 0
r 0.033755824 _7_ AGT  --- 35 cbr 230 [13a 7 6 800] ------- [6:0 7:0 30 7] [8] 1 0
r 0.034976276 _1_ AGT  --- 32 cbr 230 [13a 1 0 800] ------- [0:0 1:0 30 1] [8] 1 0
r 0.037182491 _7_ AGT  --- 7 cbr 230 [13a 7 6 800] ------- [6:0 7:0 30 7] [1] 1 0
s 0.037500000 _0_ AGT  --- 40 cbr 210 [0 0 0 0] ------- [0:0 1:0 32 0] [10] 0 0
r 0.037500000 _0_ RTR  --- 40 cbr 210 [0 0 0 0] ------- [0:0 1:0 32 0] [10] 0 0
s 0.037500000 _2_ AGT  --- 41 cbr 210 [0 0 0 0] ------- [2:0 3:0 32 0] [10] 0 0
r 0.037500000 _2_ RTR  --- 41 cbr 210 [0 0 0 0] ------- [2:0 3:0 32 0] [10] 0 0
s 0.037500000 _4_ AGT  --- 42 cbr 210 [0 0 0 0] ------- [4:0 5:0 32 0] [10] 0 0
r 0.037500000 _4_ RTR  --- 42 cbr 210 [0 0 0 0] ------- [4:0 5:0 32 0] [10] 0 0
s 0.037500000 _6_ AGT  --- 43 cbr 210 [0 0 0 0] ------- [6:0 7:0 32 0] [10] 0 0
r 0.037500000 _6_ RTR  --- 43 cbr 210 [0 0 0 0] ------- [6:0 7:0 32 0] [10] 0 0
s 0.037500000 _0_ RTR  --- 40 cbr 230 [0 0 0 0] ------- [0:0 1:0 30 1] [10] 0 0
s 0.037500000 _2_ RTR  --- 41 cbr 230 [0 0 0 0] ------- [2:0 3:0 30 3] [10] 0 0
s 0.037500000 _6_ RTR  --- 43 cbr 230 [0 0 0 0] ------- [6:0 7:0 30 7] [10] 0 0
r 0.038602943 _1_ AGT  --- 4 cbr 230 [13a 1 0 800] ------- [0:0 1:0 30 1] [1] 1 0
r 0.040729157 _7_ AGT  --- 39 cbr 230 [13a 7 6 800] ------- [6:0 7:0 30 7] [9] 1 0
s 0.041250000 _0_ AGT  --- 44 cbr 210 [0 0 0 0] ------- [0:0 1:0 32 0] [11] 0 0
r 0.041250000 _0_ RTR  --- 44 cbr 210 [0 0 0 0] ------- [0:0 1:0 32 0] [11] 0 0
s 0.041250000 _2_ AGT  --- 45 cbr 210 [0 0 0 0] ------- [2:0 3:0 32 0] [11] 0 0
r 0.041250000 _2_ RTR  --- 45 cbr 210 [0 0 0 0] ------- [2:0 3:0 32 0] [11] 0 0
s 0.041250000 _4_ AGT  --- 46 cbr 210 [0 0 0 0] ------- [4:0 5:0 32 0] [11] 0 0
r 0.041250000 _4_ RTR  --- 46 cbr 210 [0 0 0 0] ------- [4:0 5:0 32 0] [11] 0 0
s 0.041250000 _6_ AGT  --- 47 cbr 210 [0 0 0 0] ------- [6:0 7:0 32 0] [11] 0 0
r 0.041250000 _6_ RTR  --- 47 cbr 210 [0 0 0 0] ------- [6:0 7:0 32 0] [11] 0 0
s 0.041250000 _0_ RTR  --- 44 cbr 230 [0 0 0 0] ------- [0:0 1:0 30 1] [11] 0 0
s 0.041250000 _2_ RTR  --- 45 cbr 230 [0 0 0 0] ------- [2:0 3:0 30 3] [11] 0 0
s 0.041250000 _6_ RTR  --- 47 cbr 230 [0 0 0 0] ------- [6:0 7:0 30 7] [11] 0 0
r 0.042049609 _1_ AGT  --- 36 cbr 230 [13a 1 0 800] ------- [0:0 1:0 30 1] [9] 1 0
s 0.042836491 _6_ RTR  --- 11 cbr 230 [0 0 0 0] ------- [6:0 7:0 30 7] [2] 0 0
s 0.043218943 _0_ RTR  --- 8 cbr 230 [0 0 0 0] ------- [0:0 1:0 30 1] [2] 0 0
r 0.044595824 _7_ AGT  --- 43 cbr 230 [13a 7 6 800] ------- [6:0 7:0 30 7] [10] 1 0
s 0.045000000 _0_ AGT  --- 48 cbr 210 [0 0 0 0] ------- [0:0 1:0 32 0] [12] 0 0
r 0.045000000 _0_ RTR  --- 48 cbr 210 [0 0 0 0] ------- [0:0 1:0 32 0] [12] 0 0
s 0.045000000 _2_ AGT  --- 49 cbr 210 [0 0 0 0] ------- [2:0 3:0 32 0] [12] 0 0
r 0.045000000 _2_ RTR  --- 49 cbr 210 [0 0 0 0] ------- [2:0 3:0 32 0] [12] 0 0
s 0.045000000 _4_ AGT  --- 50 cbr 210 [0 0 0 0] ------- [4:0 5:0 32 0] [12] 0 0
r 0.045000000 _4_ RTR  --- 50 cbr 210 [0 0 0 0] ------- [4:0 5:0 32 0] [12] 0 0
s 0.045000000 _6_ AGT  --- 51 cbr 210 [0 0 0 0] ------- [6:0 7:0 32 0] [12] 0 0
r 0.045000000 _6_ RTR  --- 51 cbr 210 [0 0 0 0] ------- [6:0 7:0 32 0] [12] 0 0
s 0.045000000 _0_ RTR  --- 48 cbr 230 [0 0 0 0] ------- [0:0 1:0 30 1] [12] 0 0
s 0.045000000 _2_ RTR  --- 49 cbr 230 [0 0 0 0] ------- [2:0 3:0 30 3] [12] 0 0
s 0.045000000 _6_ RTR  --- 51 cbr 230 [0 0 0 0] ------- [6:0 7:0 30 7] [12] 0 0
r 0.045616276 _1_ AGT  --- 40 cbr 230 [13a 1 0 800] ------- [0:0 1:0 30 1] [10] 1 0
r 0.048142491 _7_ AGT  --- 47 cbr 230 [13a 7 6 800] ------- [6:0 7:0 30 7] [11] 1 0
s 0.048750000 _0_ AGT  --- 52 cbr 210 [0 0 0 0] ------- [0:0 1:0 32 0] [13] 0 0
r 0.048750000 _0_ RTR  --- 52 cbr 210 [0 0 0 0] ------- [0:0 1:0 32 0] [13] 0 0
s 0.048750000 _2_ AGT  --- 53 cbr 210 [0 0 0 0] ------- [2:0 3:0 32 0] [13] 0 0
r 0.048750000 _2_ RTR  --- 53 cbr 210 [0 0 0 0] ------- [2:0 3:0 32 0] [13] 0 0
s 0.048750000 _4_ AGT  --- 54 cbr 210 [0 0 0 0] ------- [4:0 5:0 32 0] [13] 0 0
r 0.048750000 _4_ RTR  --- 54 cbr 210 [0 0 0 0] ------- [4:0 5:0 32 0] [13] 0 0
s 0.048750000 _6_ AGT  --- 55 cbr 210 [0 0 0 0] ------- [6:0 7:0 32 0] [13] 0 0
r 0.048750000 _6_ RTR  --- 55 cbr 210 [0 0 0 0] ------- [6:0 7:0 32 0] [13] 0 0
s 0.048750000 _0_ RTR  --- 52 cbr 230 [0 0 0 0] ------- [0:0 1:0 30 1] [13] 0 0
s 0.048750000 _2_ RTR  --- 53 cbr 230 [0 0 0 0] ------- [2:0 3:0 30 3] [13] 0 0
s 0.048750000 _6_ RTR  --- 55 cbr 230 [0 0 0 0] ------- [6:0 7:0 30 7] [13] 0 0
r 0.049542943 _1_ AGT  --- 44 cbr 230 [13a 1 0 800] ------- [0:0 1:0 30 1] [11] 1 0
r 0.051549157 _7_ AGT  --- 11 cbr 230 [13a 7 6 800] ------- [6:0 7:0 30 7] [2] 1 0
s 0.052500000 _0_ AGT  --- 56 cbr 210 [0 0 0 0] ------- [0:0 1:0 32 0] [14] 0 0
r 0.052500000 _0_ RTR  --- 56 cbr 210 [0 0 0 0] ------- [0:0 1:0 32 0] [14] 0 0
s 0.052500000 _2_ AGT  --- 57 cbr 210 [0 0 0 0] ------- [2:0 3:0 32 0] [14] 0 0
r 0.052500000 _2_ RTR  --- 57 cbr 210 [0 0 0 0] ------- [2:0 3:0 32 0] [14] 0 0
s 0.052500000 _4_ AGT  --- 58 cbr 210 [0 0 0 0] ------- [4:0 5:0 32 0] [14] 0 0
r 0.052500000 _4_ RTR  --- 58 cbr 210 [0 0 0 0] ------- [4:0 5:0 32 0] [14] 0 0
s 0.052500000 _6_ AGT  --- 59 cbr 210 [0 0 0 0] ------- [6:0 7:0 32 0] [14] 0 0
r 0.052500000 _6_ RTR  --- 59 cbr 210 [0 0 0 0] ------- [6:0 7:0 32 0] [14] 0 0
s 0.052500000 _0_ RTR  --- 56 cbr 230 [0 0 0 0] ------- [0:0 1:0 30 1] [14] 0 0
s 0.052500000 _2_ RTR  --- 57 cbr 230 [0 0 0 0] ------- [2:0 3:0 30 3] [14] 0 0
s 0.052500000 _6_ RTR  --- 59 cbr 230 [0 0 0 0] ------- [6:0 7:0 30 7] [14] 0 0
s 0.052836491 _6_ RTR  --- 15 cbr 230 [0 0 0 0] ------- [6:0 7:0 30 7] [3] 0 0
r 0.053009609 _1_ AGT  --- 8 cbr 230 [13a 1 0 800] ------- [0:0 1:0 30 1] [2] 1 0
s 0.053218943 _0_ RTR  --- 12 cbr 230 [0 0 0 0] ------- [0:0 1:0 30 1] [3] 0 0
r 0.055235824 _7_ AGT  --- 51 cbr 230 [13a 7 6 800] ------- [6:0 7:0 30 7] [12] 1 0
s 0.056250000 _0_ AGT  --- 60 cbr 210 [0 0 0 0] ------- [0:0 1:0 32 0] [15] 0 0
r 0.056250000 _0_ RTR  --- 60 cbr 210 [0 0 0 0] ------- [0:0 1:0 32 0] [15] 0 0
s 0.056250000 _2_ AGT  --- 61 cbr 210 [0 0 0 0] ------- [2:0 3:0 32 0] [15] 0 0
r 0.056250000 _2_ RTR  --- 61 cbr 210 [0 0 0 0] ------- [2:0 3:0 32 0] [15] 0 0
s 0.056250000 _4_ AGT  --- 62 cbr 210 [0 0 0 0] ------- [4:0 5:0 32 0] [15] 0 0
r 0.056250000 _4_ RTR  --- 62 cbr 210 [0 0 0 0] ------- [4:0 5:0 32 0] [15] 0 0
s 0.056250000 _6_ AGT  --- 63 cbr 210 [0 0 0 0] ------- [6:0 7:0 32 0] [15] 0 0
r 0.056250000 _6_ RTR  --- 63 cbr 210 [0 0 0 0] ------- [6:0 7:0 32 0] [15] 0 0
s 0.056250000 _0_ RTR  --- 60 cbr 230 [0 0 0 0] ------- [0:0 1:0 30 1] [15] 0 0
s 0.056250000 _2_ RTR  --- 61 cbr 230 [0 0 0 0] ------- [2:0 3:0 30 3] [15] 0 0
s 0.056250000 _6_ RTR  --- 63 cbr 230 [0 0 0 0] ------- [6:0 7:0 30 7] [15] 0 0
r 0.056856276 _1_ AGT  --- 48 cbr 230 [13a 1 0 800] ------- [0:0 1:0 30 1] [12] 1 0
r 0.058862491 _7_ AGT  --- 55 cbr 230 [13a 7 6 800] ------- [6:0 7:0 30 7] [13] 1 0
s 0.060000000 _0_ AGT  --- 64 cbr 210 [0 0 0 0] ------- [0:0 1:0 32 0] [16] 0 0
r 0.060000000 _0_ RTR  --- 64 cbr 210 [0 0 0 0] ------- [0:0 1:0 32 0] [16] 0 0
s 0.060000000 _2_ AGT  --- 65 cbr 210 [0 0 0 0] ------- [2:0 3:0 32 0] [16] 0 0
r 0.060000000 _2_ RTR  --- 65 cbr 210 [0 0 0 0] ------- [2:0 3:0 32 0] [16] 0 0
s 0.060000000 _4_ AGT  --- 66 cbr 210 [0 0 0 0] ------- [4:0 5:0 32 0] [16] 0 0
r 0.060000000 _4_ RTR  --- 66 cbr 210 [0 0 0 0] ------- [4:0 5:0 32 0] [16] 0 0
s 0.060000000 _6_ AGT  --- 67 cbr 210 [0 0 0 0] ------- [6:0 7:0 32 0] [16] 0 0
r 0.060000000 _6_ RTR  --- 67 cbr 210 [0 0 0 0] ------- [6:0 7:0 32 0] [16] 0 0
s 0.060000000 _0_ RTR  --- 64 cbr 230 [0 0 0 0] ------- [0:0 1:0 30 1] [16] 0 0
s 0.060000000 _2_ RTR  --- 65 cbr 230 [0 0 0 0] ------- [2:0 3:0 30 3] [16] 0 0
s 0.060000000 _6_ RTR  --- 67 cbr 230 [0 0 0 0] ------- [6:0 7:0 30 7] [16] 0 0
r 0.060382943 _1_ AGT  --- 52 cbr 230 [13a 1 0 800] ------- [0:0 1:0 30 1] [13] 1 0
r 0.062489157 _7_ AGT  --- 59 cbr 230 [13a 7 6 800] ------- [6:0 7:0 30 7] [14] 1 0
s 0.062836491 _6_ RTR  --- 19 cbr 230 [0 0 0 0] ------- [6:0 7:0 30 7] [4] 0 0
s 0.063218943 _0_ RTR  --- 16 cbr 230 [0 0 0 0] ------- [0:0 1:0 30 1] [4] 0 0
s 0.063750000 _0_ AGT  --- 68 cbr 210 [0 0 0 0] ------- [0:0 1:0 32 0] [17] 0 0
r 0.063750000 _0_ RTR  --- 68 cbr 210 [0 0 0 0] ------- [0:0 1:0 32 0] [17] 0 0
s 0.063750000 _2_ AGT  --- 69 cbr 210 [0 0 0 0] ------- [2:0 3:0 32 0] [17] 0 0
r 0.063750000 _2_ RTR  --- 69 cbr 210 [0 0 0 0] ------- [2:0 3:0 32 0] [17] 0 0
s 0.063750000 _4_ AGT  --- 70 cbr 210 [0 0 0 0] ------- [4:0 5:0 32 0] [17] 0 0
r 0.063750000 _4_ RTR  --- 70 cbr 210 [0 0 0 0] ------- [4:0 5:0 32 0] [17] 0 0
s 0.063750000 _6_ AGT  --- 71 cbr 210 [0 0 0 0] ------- [6:0 7:0 32 0] [17] 0 0
r 0.063750000 _6_ RTR  --- 71 cbr 210 [0 0 0 0] ------- [6:0 7:0 32 0] [17] 0 0
s 0.063750000 _0_ RTR  --- 68 cbr 230 [0 0 0 0] ------- [0:0 1:0 30 1] [17] 0 0
s 0.063750000 _2_ RTR  --- 69 cbr 230 [0 0 0 0] ------- [2:0 3:0 30 3] [17] 0 0
s 0.063750000 _6_ RTR  --- 71 cbr 230 [0 0 0 0] ------- [6:0 7:0 30 7] [17] 0 0
r 0.064209609 _1_ AGT  --- 56 cbr 230 [13a 1 0 800] ------- [0:0 1:0 30 1] [14] 1 0
r 0.065835824 _7_ AGT  --- 15 cbr 230 [13a 7 6 800] ------- [6:0 7:0 30 7] [3] 1 0
s 0.067500000 _0_ AGT  --- 72 cbr 210 [0 0 0 0] ------- [0:0 1:0 32 0] [18] 0 0
r 0.067500000 _0_ RTR  --- 72 cbr 210 [0 0 0 0] ------- [0:0 1:0 32 0] [18] 0 0
s 0.067500000 _2_ AGT  --- 73 cbr 210 [0 0 0 0] ------- [2:0 3:0 32 0] [18] 0 0
r 0.067500000 _2_ RTR  --- 73 cbr 210 [0 0 0 0] ------- [2:0 3:0 32 0] [18] 0 0
s 0.067500000 _4_ AGT  --- 74 cbr 210 [0 0 0 0] ------- [4:0 5:0 32 0] [18] 0 0
r 0.067500000 _4_ RTR  --- 74 cbr 210 [0 0 0 0] ------- [4:0 5:0 32 0] [18] 0 0
s 0.067500000 _6_ AGT  --- 75 cbr 210 [0 0 0 0] ------- [6:0 7:0 32 0] [18] 0 0
r 0.067500000 _6_ RTR  --- 75 cbr 210 [0 0 0 0] ------- [6:0 7:0 32 0] [18] 0 0
s 0.067500000 _0_ RTR  --- 72 cbr 230 [0 0 0 0] ------- [0:0 1:0 30 1] [18] 0 0
s 0.067500000 _2_ RTR  --- 73 cbr 230 [0 0 0 0] ------- [2:0 3:0 30 3] [18] 0 0
s 0.067500000 _6_ RTR  --- 75 cbr 230 [0 0 0 0] ------- [6:0 7:0 30 7] [18] 0 0
r 0.067776276 _1_ AGT  --- 12 cbr 230 [13a 1 0 800] ------- [0:0 1:0 30 1] [3] 1 0
r 0.069502491 _7_ AGT  --- 63 cbr 230 [13a 7 6 800] ------- [6:0 7:0 30 7] [15] 1 0
s 0.071250000 _0_ AGT  --- 76 cbr 210 [0 0 0 0] ------- [0:0 1:0 32 0] [19] 0 0
r 0.071250000 _0_ RTR  --- 76 cbr 210 [0 0 0 0] ------- [0:0 1:0 32 0] [19] 0 0
s 0.071250000 _2_ AGT  --- 77 cbr 210 [0 0 0 0] ------- [2:0 3:0 32 0] [19] 0 0
r 0.071250000 _2_ RTR  --- 77 cbr 210 [0 0 0 0] ------- [2:0 3:0 32 0] [19] 0 0
s 0.071250000 _4_ AGT  --- 78 cbr 210 [0 0 0 0] ------- [4:0 5:0 32 0] [19] 0 0
r 0.071250000 _4_ RTR  --- 78 cbr 210 [0 0 0 0] ------- [4:0 5:0 32 0] [19] 0 0
s 0.071250000 _6_ AGT  --- 79 cbr 210 [0 0 0 0] ------- [6:0 7:0 32 0] [19] 0 0
r 0.071250000 _6_ RTR  --- 79 cbr 210 [0 0 0 0] ------- [6:0 7:0 32 0] [19] 0 0
s 0.071250000 _0_ RTR  --- 76 cbr 230 [0 0 0 0] ------- [0:0 1:0 30 1] [19] 0 0
s 0.071250000 _2_ RTR  --- 77 cbr 230 [0 0 0 0] ------- [2:0 3:0 30 3] [19] 0 0
s 0.071250000 _6_ RTR  --- 79 cbr 230 [0 0 0 0] ------- [6:0 7:0 30 7] [19] 0 0
r 0.071282943 _1_ AGT  --- 60 cbr 230 [13a 1 0 800] ------- [0:0 1:0 30 1] [15] 1 0
s 0.072836491 _6_ RTR  --- 23 cbr 230 [0 0 0 0] ------- [6:0 7:0 30 7] [5] 0 0
r 0.073069157 _7_ AGT  --- 67 cbr 230 [13a 7 6 800] ------- [6:0 7:0 30 7] [16] 1 0
s 0.073218943 _0_ RTR  --- 20 cbr 230 [0 0 0 0] ------- [0:0 1:0 30 1] [5] 0 0
r 0.074709609 _1_ AGT  --- 64 cbr 230 [13a 1 0 800] ------- [0:0 1:0 30 1] [16] 1 0
s 0.075000000 _0_ AGT  --- 80 cbr 210 [0 0 0 0] ------- [0:0 1:0 32 0] [20] 0 0
r 0.075000000 _0_ RTR  --- 80 cbr 210 [0 0 0 0] ------- [0:0 1:0 32 0] [20] 0 0
s 0.075000000 _2_ AGT  --- 81 cbr 210 [0 0 0 0] ------- [2:0 3:0 32 0] [20] 0 0
r 0.075000000 _2_ RTR  --- 81 cbr 210 [0 0 0 0] ------- [2:0 3:0 32 0] [20] 0 0
s 0.075000000 _4_ AGT  --- 82 cbr 210 [0 0 0 0] ------- [4:0 5:0 32 0] [20] 0 0
r 0.075000000 _4_ RTR  --- 82 cbr 210 [0 0 0 0] ------- [4:0 5:0 32 0] [20] 0 0
s 0.075000000 _6_ AGT  --- 83 cbr 210 [0 0 0 0] ------- [6:0 7:0 32 0] [20] 0 0
r 0.075000000 _6_ RTR  --- 83 cbr 210 [0 0 0 0] ------- [6:0 7:0 32 0] [20] 0 0
s 0.075000000 _0_ RTR  --- 80 cbr 230 [0 0 0 0] ------- [0:0 1:0 30 1] [20] 0 0
s 0.075000000 _2_ RTR  --- 81 cbr 230 [0 0 0 0] ------- [2:0 3:0 30 3] [20] 0 0
s 0.075000000 _6_ RTR  --- 83 cbr 230 [0 0 0 0] ------- [6:0 7:0 30 7] [20] 0 0
r 0.076715824 _7_ AGT  --- 19 cbr 230 [13a 7 6 800] ------- [6:0 7:0 30 7] [4] 1 0
r 0.078056276 _1_ AGT  --- 16 cbr 230 [13a 1 0 800] ------- [0:0 1:0 30 1] [4] 1 0
s 0.078750000 _0_ AGT  --- 84 cbr 210 [0 0 0 0] ------- [0:0 1:0 32 0] [21] 0 0
r 0.078750000 _0_ RTR  --- 84 cbr 210 [0 0 0 0] ------- [0:0 1:0 32 0] [21] 0 0
s 0.078750000 _2_ AGT  --- 85 cbr 210 [0 0 0 0] ------- [2:0 3:0 32 0] [21] 0 0
r 0.078750000 _2_ RTR  --- 85 cbr 210 [0 0 0 0] ------- [2:0 3:0 32 0] [21] 0 0
s 0.078750000 _4_ AGT  --- 86 cbr 210 [0 0 0 0] ------- [4:0 5:0 32 0] [21] 0 0
r 0.078750000 _4_ RTR  --- 86 cbr 210 [0 0 0 0] ------- [4:0 5:0 32 0] [21] 0 0
s 0.078750000 _6_ AGT  --- 87 cbr 210 [0 0 0 0] ------- [6:0 7:0 32 0] [21] 0 0
r 0.078750000 _6_ RTR  --- 87 cbr 210 [0 0 0 0] ------- [6:0 7:0 32 0] [21] 0 0
s 0.078750000 _0_ RTR  --- 84 cbr 230 [0 0 0 0] ------- [0:0 1:0 30 1] [21] 0 0
s 0.078750000 _2_ RTR  --- 85 cbr 230 [0 0 0 0] ------- [2:0 3:0 30 3] [21] 0 0
s 0.078750000 _6_ RTR  --- 87 cbr 230 [0 0 0 0] ------- [6:0 7:0 30 7] [21] 0 0
r 0.080302491 _7_ AGT  --- 71 cbr 230 [13a 7 6 800] ------- [6:0 7:0 30 7] [17] 1 0
r 0.081702943 _1_ AGT  --- 68 cbr 230 [13a 1 0 800] ------- [0:0 1:0 30 1] [17] 1 0
s 0.082500000 _0_ AGT  --- 88 cbr 210 [0 0 0 0] ------- [0:0 1:0 32 0] [22] 0 0
r 0.082500000 _0_ RTR  --- 88 cbr 210 [0 0 0 0] ------- [0:0 1:0 32 0] [22] 0 0
s 0.082500000 _2_ AGT  --- 89 cbr 210 [0 0 0 0] ------- [2:0 3:0 32 0] [22] 0 0
r 0.082500000 _2_ RTR  --- 89 cbr 210 [0 0 0 0] ------- [2:0 3:0 32 0] [22] 0 0
s 0.082500000 _4_ AGT  --- 90 cbr 210 [0 0 0 0] ------- [4:0 5:0 32 0] [22] 0 0
r 0.082500000 _4_ RTR  --- 90 cbr 210 [0 0 0 0] ------- [4:0 5:0 32 0] [22] 0 0
s 0.082500000 _6_ AGT  --- 91 cbr 210 [0 0 0 0] ------- [6:0 7:0 32 0] [22] 0 0
r 0.082500000 _6_ RTR  --- 91 cbr 210 [0 0 0 0] ------- [6:0 7:0 32 0] [22] 0 0
s 0.082500000 _0_ RTR  --- 88 cbr 230 [0 0 0 0] ------- [0:0 1:0 30 1] [22] 0 0
s 0.082500000 _2_ RTR  --- 89 cbr 230 [0 0 0 0] ------- [2:0 3:0 30 3] [22] 0 0
s 0.082500000 _6_ RTR  --- 91 cbr 230 [0 0 0 0] ------- [6:0 7:0 30 7] [22] 0 0
s 0.082836491 _6_ RTR  --- 27 cbr 230 [0 0 0 0] ------- [6:0 7:0 30 7] [6] 0 0
s 0.083218943 _0_ RTR  --- 24 cbr 230 [0 0 0 0] ------- [0:0 1:0 30 1] [6] 0 0
r 0.083929157 _7_ AGT  --- 75 cbr 230 [13a 7 6 800] ------- [6:0 7:0 30 7] [18] 1 0
r 0.085069609 _1_ AGT  --- 72 cbr 230 [13a 1 0 800] ------- [0:0 1:0 30 1] [18] 1 0
s 0.086250000 _0_ AGT  --- 92 cbr 210 [0 0 0 0] ------- [0:0 1:0 32 0] [23] 0 0
r 0.086250000 _0_ RTR  --- 92 cbr 210 [0 0 0 0] ------- [0:0 1:0 32 0] [23] 0 0
s 0.086250000 _2_ AGT  --- 93 cbr 210 [0 0 0 0] ------- [2:0 3:0 32 0] [23] 0 0
r 0.086250000 _2_ RTR  --- 93 cbr 210 [0 0 0 0] ------- [2:0 3:0 32 0] [23] 0 0
s 0.086250000 _4_ AGT  --- 94 cbr 210 [0 0 0 0] ------- [4:0 5:0 32 0] [23] 0 0
r 0.086250000 _4_ RTR  --- 94 cbr 210 [0 0 0 0] ------- [4:0 5:0 32 0] [23] 0 0
s 0.086250000 _6_ AGT  --- 95 cbr 210 [0 0 0 0] ------- [6:0 7:0 32 0] [23] 0 0
r 0.086250000 _6_ RTR  --- 95 cbr 210 [0 0 0 0] ------- [6:0 7:0 32 0] [23] 0 0
s 0.086250000 _0_ RTR  --- 92 cbr 230 [0 0 0 0] ------- [0:0 1:0 30 1] [23] 0 0
s 0.086250000 _2_ RTR  --- 93 cbr 230 [0 0 0 0] ------- [2:0 3:0 30 3] [23] 0 0
s 0.086250000 _6_ RTR  --- 95 cbr 230 [0 0 0 0] ------- [6:0 7:0 30 7] [23] 0 0
r 0.087755824 _7_ AGT  --- 79 cbr 230 [13a 7 6 800] ------- [6:0 7:0 30 7] [19] 1 0
r 0.088656276 _1_ AGT  --- 76 cbr 230 [13a 1 0 800] ------- [0:0 1:0 30 1] [19] 1 0
s 0.090000000 _0_ AGT  --- 96 cbr 210 [0 0 0 0] ------- [0:0 1:0 32 0] [24] 0 0
r 0.090000000 _0_ RTR  --- 96 cbr 210 [0 0 0 0] ------- [0:0 1:0 32 0] [24] 0 0
s 0.090000000 _2_ AGT  --- 97 cbr 210 [0 0 0 0] ------- [2:0 3:0 32 0] [24] 0 0
r 0.090000000 _2_ RTR  --- 97 cbr 210 [0 0 0 0] ------- [2:0 3:0 32 0] [24] 0 0
s 0.090000000 _4_ AGT  --- 98 cbr 210 [0 0 0 0] ------- [4:0 5:0 32 0] [24] 0 0
r 0.090000000 _4_ RTR  --- 98 cbr 210 [0 0 0 0] ------- [4:0 5:0 32 0] [24] 0 0
s 0.090000000 _6_ AGT  --- 99 cbr 210 [0 0 0 0] ------- [6:0 7:0 32 0] [24] 0 0
r 0.090000000 _6_ RTR  --- 99 cbr 210 [0 0 0 0] ------- [6:0 7:0 32 0] [24] 0 0
s 0.090000000 _0_ RTR  --- 96 cbr 230 [0 0 0 0] ------- [0:0 1:0 30 1] [24] 0 0
s 0.090000000 _2_ RTR  --- 97 cbr 230 [0 0 0 0] ------- [2:0 3:0 30 3] [24] 0 0
s 0.090000000 _6_ RTR  --- 99 cbr 230 [0 0 0 0] ------- [6:0 7:0 30 7] [24] 0 0
r 0.091222491 _7_ AGT  --- 23 cbr 230 [13a 7 6 800] ------- [6:0 7:0 30 7] [5] 1 0
r 0.092302943 _1_ AGT  --- 20 cbr 230 [13a 1 0 800] ------- [0:0 1:0 30 1] [5] 1 0
s 0.093750000 _0_ AGT  --- 100 cbr 210 [0 0 0 0] ------- [0:0 1:0 32 0] [25] 0 0
r 0.093750000 _0_ RTR  --- 100 cbr 210 [0 0 0 0] ------- [0:0 1:0 32 0] [25] 0 0
s 0.093750000 _2_ AGT  --- 101 cbr 210 [0 0 0 0] ------- [2:0 3:0 32 0] [25] 0 0
r 0.093750000 _2_ RTR  --- 101 cbr 210 [0 0 0 0] ------- [2:0 3:0 32 0] [25] 0 0
s 0.093750000 _4_ AGT  --- 102 cbr 210 [0 0 0 0] ------- [4:0 5:0 32 0] [25] 0 0
r 0.093750000 _4_ RTR  --- 102 cbr 210 [0 0 0 0] ------- [4:0 5:0 32 0] [25] 0 0
s 0.093750000 _6_ AGT  --- 103 cbr 210 [0 0 0 0] ------- [6:0 7:0 32 0] [25] 0 0
r 0.093750000 _6_ RTR  --- 103 cbr 210 [0 0 0 0] ------- [6:0 7:0 32 0] [25] 0 0
s 0.093750000 _0_ RTR  --- 100 cbr 230 [0 0 0 0] ------- [0:0 1:0 30 1] [25] 0 0
s 0.093750000 _2_ RTR  --- 101 cbr 230 [0 0 0 0] ------- [2:0 3:0 30 3] [25] 0 0
s 0.093750000 _6_ RTR  --- 103 cbr 230 [0 0 0 0] ------- [6:0 7:0 30 7] [25] 0 0
r 0.094609157 _7_ AGT  --- 83 cbr 230 [13a 7 6 800] ------- [6:0 7:0 30 7] [20] 1 0
r 0.096109609 _1_ AGT  --- 80 cbr 230 [13a 1 0 800] ------- [0:0 1:0 30 1] [20] 1 0
s 0.097500000 _0_ AGT  --- 104 cbr 210 [0 0 0 0] ------- [0:0 1:0 32 0] [26] 0 0
r 0.097500000 _0_ RTR  --- 104 cbr 210 [0 0 0 0] ------- [0:0 1:0 32 0] [26] 0 0
s 0.097500000 _2_ AGT  --- 105 cbr 210 [0 0 0 0] ------- [2:0 3:0 32 0] [26] 0 0
r 0.097500000 _2_ RTR  --- 105 cbr 210 [0 0 0 0] ------- [2:0 3:0 32 0] [26] 0 0
s 0.097500000 _4_ AGT  --- 106 cbr 210 [0 0 0 0] ------- [4:0 5:0 32 0] [26] 0 0
r 0.097500000 _4_ RTR  --- 106 cbr 210 [0 0 0 0] ------- [4:0 5:0 32 0] [26] 0 0
s 0.097500000 _6_ AGT  --- 107 cbr 210 [0 0 0 0] ------- [6:0 7:0 32 0] [26] 0 0
r 0.097500000 _6_ RTR  --- 107 cbr 210 [0 0 0 0] ------- [6:0 7:0 32 0] [26] 0 0